<?xml version ="1.0" encoding ="UTF-8" ?>
<hoomd_xml version="1.4">
<!-- generated by VMD on: Sat Oct 12 22:38:56 2019
 HOOMD-blue XML File plugin v0.10 by Axel Kohlmeyer -->
<configuration time_step="0" natoms="747">
<type num="747">
ter2
tail
tail
tail
tail
tail
tail
tail
amide
mhead2
tail
tail
tail
tail
tail
oh1
oh2
oh3
ter2
tail
tail
tail
tail
tail
tail
tail
amide
mhead2
tail
tail
tail
tail
tail
oh1
oh2
oh3
ter2
tail
tail
tail
tail
tail
tail
tail
amide
mhead2
tail
tail
tail
tail
tail
oh1
oh2
oh3
ter2
tail
tail
tail
tail
tail
tail
tail
amide
mhead2
tail
tail
tail
tail
tail
oh1
oh2
oh3
ter2
tail
tail
tail
tail
tail
tail
tail
amide
mhead2
tail
tail
tail
tail
tail
oh1
oh2
oh3
ter2
tail
tail
tail
tail
tail
tail
tail
amide
mhead2
tail
tail
tail
tail
tail
oh1
oh2
oh3
oh4
ter2
tail
tail
tail
tail
tail
tail
tail
amide
mhead2
tail
tail
tail
tail
tail
oh1
oh2
oh3
oh4
ter2
tail
tail
tail
tail
tail
tail
tail
amide
mhead2
tail
tail
tail
tail
tail
oh1
oh2
oh3
oh4
ter2
tail
tail
tail
tail
tail
tail
tail
amide
mhead2
tail
tail
tail
tail
tail
oh1
oh2
oh3
oh4
ter2
tail
tail
tail
tail
tail
tail
tail
amide
mhead2
tail
tail
tail
tail
tail
oh1
oh2
oh3
oh4
ter2
tail
tail
tail
tail
tail
tail
tail
amide
mhead2
tail
tail
tail
tail
tail
oh1
oh2
oh3
oh4
ter2
tail
tail
tail
tail
tail
tail
tail
amide
mhead2
tail
tail
tail
tail
tail
oh1
oh2
oh3
oh4
ter2
tail
tail
tail
tail
tail
tail
tail
amide
mhead2
tail
tail
tail
tail
tail
oh1
oh2
oh3
oh4
ter2
tail
tail
tail
tail
tail
tail
tail
amide
mhead2
tail
tail
tail
tail
tail
oh1
oh2
oh3
oh4
ter2
tail
tail
tail
tail
tail
tail
tail
amide
mhead2
tail
tail
tail
tail
tail
oh1
oh2
oh3
oh4
ter2
tail
tail
tail
tail
tail
tail
tail
amide
mhead2
tail
tail
tail
tail
tail
oh1
oh2
oh3
oh4
ter2
tail
tail
tail
tail
tail
tail
tail
amide
mhead2
tail
tail
tail
tail
tail
oh1
oh2
oh3
oh4
chead
ring
ring
ring
ring
ctail
cterm
chme
chme
chead
ring
ring
ring
ring
ctail
cterm
chme
chme
chead
ring
ring
ring
ring
ctail
cterm
chme
chme
chead
ring
ring
ring
ring
ctail
cterm
chme
chme
chead
ring
ring
ring
ring
ctail
cterm
chme
chme
chead
ring
ring
ring
ring
ctail
cterm
chme
chme
chead
ring
ring
ring
ring
ctail
cterm
chme
chme
chead
ring
ring
ring
ring
ctail
cterm
chme
chme
ter2
tail
tail
tail
tail
tail
tail
tail
head
ter2
tail
tail
tail
tail
tail
tail
tail
head
ter2
tail
tail
tail
tail
tail
tail
tail
head
ter2
tail
tail
tail
tail
tail
tail
tail
head
ter2
tail
tail
tail
tail
tail
tail
tail
head
ter2
tail
tail
tail
tail
tail
tail
tail
head
ter2
tail
tail
tail
tail
tail
tail
tail
head
ter2
tail
tail
tail
tail
tail
tail
tail
head
ter2
tail
tail
tail
tail
tail
tail
tail
head
ter2
tail
tail
tail
tail
tail
tail
tail
head
ter2
tail
tail
tail
tail
tail
tail
tail
head
ter2
tail
tail
tail
tail
tail
tail
tail
head
ter2
tail
tail
tail
tail
tail
tail
tail
head
ter2
tail
tail
tail
tail
tail
tail
tail
head
ter2
tail
tail
tail
tail
tail
tail
tail
head
ter2
tail
tail
tail
tail
tail
tail
tail
head
ter2
tail
tail
tail
tail
tail
tail
tail
head
ter2
tail
tail
tail
tail
tail
tail
tail
head
ter2
tail
tail
tail
tail
tail
tail
tail
head
ter2
tail
tail
tail
tail
tail
tail
tail
head
ter2
tail
tail
tail
tail
tail
tail
tail
head
ter2
tail
tail
tail
tail
tail
tail
tail
head
ter2
tail
tail
tail
tail
tail
tail
tail
head
ter2
tail
tail
tail
tail
tail
tail
tail
head
ter2
tail
tail
tail
tail
tail
tail
tail
head
water
water
water
water
water
water
water
water
water
water
water
water
water
water
water
water
water
water
water
water
water
water
water
water
water
water
water
water
water
water
water
water
water
water
water
water
water
water
water
water
water
water
water
water
water
water
water
water
water
water
water
water
water
water
water
water
water
water
water
water
water
water
water
water
water
water
water
water
water
water
water
water
water
water
water
water
water
water
water
water
water
water
water
water
water
water
water
water
water
water
water
water
water
water
water
water
water
water
water
water
water
water
water
water
water
water
water
water
water
water
water
water
water
water
water
water
water
water
water
water
water
water
water
water
water
water
water
water
water
water
water
water
</type>
<body num="747">
-1
-1
-1
-1
-1
-1
-1
-1
-1
-1
-1
-1
-1
-1
-1
-1
-1
-1
-1
-1
-1
-1
-1
-1
-1
-1
-1
-1
-1
-1
-1
-1
-1
-1
-1
-1
-1
-1
-1
-1
-1
-1
-1
-1
-1
-1
-1
-1
-1
-1
-1
-1
-1
-1
-1
-1
-1
-1
-1
-1
-1
-1
-1
-1
-1
-1
-1
-1
-1
-1
-1
-1
-1
-1
-1
-1
-1
-1
-1
-1
-1
-1
-1
-1
-1
-1
-1
-1
-1
-1
-1
-1
-1
-1
-1
-1
-1
-1
-1
-1
-1
-1
-1
-1
-1
-1
-1
-1
-1
-1
-1
-1
-1
-1
-1
-1
-1
-1
-1
-1
-1
-1
-1
-1
-1
-1
-1
-1
-1
-1
-1
-1
-1
-1
-1
-1
-1
-1
-1
-1
-1
-1
-1
-1
-1
-1
-1
-1
-1
-1
-1
-1
-1
-1
-1
-1
-1
-1
-1
-1
-1
-1
-1
-1
-1
-1
-1
-1
-1
-1
-1
-1
-1
-1
-1
-1
-1
-1
-1
-1
-1
-1
-1
-1
-1
-1
-1
-1
-1
-1
-1
-1
-1
-1
-1
-1
-1
-1
-1
-1
-1
-1
-1
-1
-1
-1
-1
-1
-1
-1
-1
-1
-1
-1
-1
-1
-1
-1
-1
-1
-1
-1
-1
-1
-1
-1
-1
-1
-1
-1
-1
-1
-1
-1
-1
-1
-1
-1
-1
-1
-1
-1
-1
-1
-1
-1
-1
-1
-1
-1
-1
-1
-1
-1
-1
-1
-1
-1
-1
-1
-1
-1
-1
-1
-1
-1
-1
-1
-1
-1
-1
-1
-1
-1
-1
-1
-1
-1
-1
-1
-1
-1
-1
-1
-1
-1
-1
-1
-1
-1
-1
-1
-1
-1
-1
-1
-1
-1
-1
-1
-1
-1
-1
-1
-1
-1
-1
-1
-1
-1
-1
-1
-1
-1
-1
-1
-1
-1
-1
-1
-1
-1
-1
-1
-1
-1
-1
-1
-1
-1
-1
-1
-1
-1
-1
-1
-1
-1
-1
-1
-1
-1
-1
-1
-1
-1
-1
-1
-1
-1
-1
-1
-1
-1
-1
-1
-1
-1
-1
-1
-1
-1
-1
-1
-1
-1
-1
-1
-1
-1
-1
-1
-1
-1
-1
-1
-1
-1
-1
-1
-1
-1
-1
-1
-1
-1
-1
-1
-1
-1
-1
-1
-1
-1
-1
-1
-1
-1
-1
-1
-1
-1
-1
-1
-1
-1
-1
-1
-1
-1
-1
-1
-1
-1
-1
-1
-1
-1
-1
-1
-1
-1
-1
-1
-1
-1
-1
-1
-1
-1
-1
-1
-1
-1
-1
-1
-1
-1
-1
-1
-1
-1
-1
-1
-1
-1
-1
-1
-1
-1
-1
-1
-1
-1
-1
-1
-1
-1
-1
-1
-1
-1
-1
-1
-1
-1
-1
-1
-1
-1
-1
-1
-1
-1
-1
-1
-1
-1
-1
-1
-1
-1
-1
-1
-1
-1
-1
-1
-1
-1
-1
-1
-1
-1
-1
-1
-1
-1
-1
-1
-1
-1
-1
-1
-1
-1
-1
-1
-1
-1
-1
-1
-1
-1
-1
-1
-1
-1
-1
-1
-1
-1
-1
-1
-1
-1
-1
-1
-1
-1
-1
-1
-1
-1
-1
-1
-1
-1
-1
-1
-1
-1
-1
-1
-1
-1
-1
-1
-1
-1
-1
-1
-1
-1
-1
-1
-1
-1
-1
-1
-1
-1
-1
-1
-1
-1
-1
-1
-1
-1
-1
-1
-1
-1
-1
-1
-1
-1
-1
-1
-1
-1
-1
-1
-1
-1
-1
-1
-1
-1
-1
-1
-1
-1
-1
-1
-1
-1
-1
-1
-1
-1
-1
-1
-1
-1
-1
-1
-1
-1
-1
-1
-1
-1
-1
-1
-1
-1
-1
-1
-1
-1
-1
-1
-1
-1
-1
-1
-1
-1
-1
-1
-1
-1
-1
-1
-1
-1
-1
-1
-1
-1
-1
-1
-1
-1
-1
-1
-1
-1
-1
-1
-1
-1
-1
-1
-1
-1
-1
-1
-1
-1
-1
-1
-1
-1
-1
-1
-1
-1
-1
-1
-1
-1
-1
-1
-1
-1
-1
-1
-1
-1
-1
-1
-1
-1
-1
-1
-1
-1
-1
-1
-1
-1
-1
-1
-1
-1
-1
-1
-1
-1
-1
-1
-1
-1
-1
-1
-1
-1
-1
-1
-1
-1
-1
-1
-1
-1
-1
-1
-1
-1
-1
-1
-1
-1
-1
-1
-1
-1
-1
-1
-1
-1
-1
-1
-1
-1
-1
-1
-1
-1
-1
-1
-1
-1
-1
</body>
<diameter num="747">
1.000000
1.000000
1.000000
1.000000
1.000000
1.000000
1.000000
1.000000
1.000000
1.000000
1.000000
1.000000
1.000000
1.000000
1.000000
1.000000
1.000000
1.000000
1.000000
1.000000
1.000000
1.000000
1.000000
1.000000
1.000000
1.000000
1.000000
1.000000
1.000000
1.000000
1.000000
1.000000
1.000000
1.000000
1.000000
1.000000
1.000000
1.000000
1.000000
1.000000
1.000000
1.000000
1.000000
1.000000
1.000000
1.000000
1.000000
1.000000
1.000000
1.000000
1.000000
1.000000
1.000000
1.000000
1.000000
1.000000
1.000000
1.000000
1.000000
1.000000
1.000000
1.000000
1.000000
1.000000
1.000000
1.000000
1.000000
1.000000
1.000000
1.000000
1.000000
1.000000
1.000000
1.000000
1.000000
1.000000
1.000000
1.000000
1.000000
1.000000
1.000000
1.000000
1.000000
1.000000
1.000000
1.000000
1.000000
1.000000
1.000000
1.000000
1.000000
1.000000
1.000000
1.000000
1.000000
1.000000
1.000000
1.000000
1.000000
1.000000
1.000000
1.000000
1.000000
1.000000
1.000000
1.000000
1.000000
1.000000
1.000000
1.000000
1.000000
1.000000
1.000000
1.000000
1.000000
1.000000
1.000000
1.000000
1.000000
1.000000
1.000000
1.000000
1.000000
1.000000
1.000000
1.000000
1.000000
1.000000
1.000000
1.000000
1.000000
1.000000
1.000000
1.000000
1.000000
1.000000
1.000000
1.000000
1.000000
1.000000
1.000000
1.000000
1.000000
1.000000
1.000000
1.000000
1.000000
1.000000
1.000000
1.000000
1.000000
1.000000
1.000000
1.000000
1.000000
1.000000
1.000000
1.000000
1.000000
1.000000
1.000000
1.000000
1.000000
1.000000
1.000000
1.000000
1.000000
1.000000
1.000000
1.000000
1.000000
1.000000
1.000000
1.000000
1.000000
1.000000
1.000000
1.000000
1.000000
1.000000
1.000000
1.000000
1.000000
1.000000
1.000000
1.000000
1.000000
1.000000
1.000000
1.000000
1.000000
1.000000
1.000000
1.000000
1.000000
1.000000
1.000000
1.000000
1.000000
1.000000
1.000000
1.000000
1.000000
1.000000
1.000000
1.000000
1.000000
1.000000
1.000000
1.000000
1.000000
1.000000
1.000000
1.000000
1.000000
1.000000
1.000000
1.000000
1.000000
1.000000
1.000000
1.000000
1.000000
1.000000
1.000000
1.000000
1.000000
1.000000
1.000000
1.000000
1.000000
1.000000
1.000000
1.000000
1.000000
1.000000
1.000000
1.000000
1.000000
1.000000
1.000000
1.000000
1.000000
1.000000
1.000000
1.000000
1.000000
1.000000
1.000000
1.000000
1.000000
1.000000
1.000000
1.000000
1.000000
1.000000
1.000000
1.000000
1.000000
1.000000
1.000000
1.000000
1.000000
1.000000
1.000000
1.000000
1.000000
1.000000
1.000000
1.000000
1.000000
1.000000
1.000000
1.000000
1.000000
1.000000
1.000000
1.000000
1.000000
1.000000
1.000000
1.000000
1.000000
1.000000
1.000000
1.000000
1.000000
1.000000
1.000000
1.000000
1.000000
1.000000
1.000000
1.000000
1.000000
1.000000
1.000000
1.000000
1.000000
1.000000
1.000000
1.000000
1.000000
1.000000
1.000000
1.000000
1.000000
1.000000
1.000000
1.000000
1.000000
1.000000
1.000000
1.000000
1.000000
1.000000
1.000000
1.000000
1.000000
1.000000
1.000000
1.000000
1.000000
1.000000
1.000000
1.000000
1.000000
1.000000
1.000000
1.000000
1.000000
1.000000
1.000000
1.000000
1.000000
1.000000
1.000000
1.000000
1.000000
1.000000
1.000000
1.000000
1.000000
1.000000
1.000000
1.000000
1.000000
1.000000
1.000000
1.000000
1.000000
1.000000
1.000000
1.000000
1.000000
1.000000
1.000000
1.000000
1.000000
1.000000
1.000000
1.000000
1.000000
1.000000
1.000000
1.000000
1.000000
1.000000
1.000000
1.000000
1.000000
1.000000
1.000000
1.000000
1.000000
1.000000
1.000000
1.000000
1.000000
1.000000
1.000000
1.000000
1.000000
1.000000
1.000000
1.000000
1.000000
1.000000
1.000000
1.000000
1.000000
1.000000
1.000000
1.000000
1.000000
1.000000
1.000000
1.000000
1.000000
1.000000
1.000000
1.000000
1.000000
1.000000
1.000000
1.000000
1.000000
1.000000
1.000000
1.000000
1.000000
1.000000
1.000000
1.000000
1.000000
1.000000
1.000000
1.000000
1.000000
1.000000
1.000000
1.000000
1.000000
1.000000
1.000000
1.000000
1.000000
1.000000
1.000000
1.000000
1.000000
1.000000
1.000000
1.000000
1.000000
1.000000
1.000000
1.000000
1.000000
1.000000
1.000000
1.000000
1.000000
1.000000
1.000000
1.000000
1.000000
1.000000
1.000000
1.000000
1.000000
1.000000
1.000000
1.000000
1.000000
1.000000
1.000000
1.000000
1.000000
1.000000
1.000000
1.000000
1.000000
1.000000
1.000000
1.000000
1.000000
1.000000
1.000000
1.000000
1.000000
1.000000
1.000000
1.000000
1.000000
1.000000
1.000000
1.000000
1.000000
1.000000
1.000000
1.000000
1.000000
1.000000
1.000000
1.000000
1.000000
1.000000
1.000000
1.000000
1.000000
1.000000
1.000000
1.000000
1.000000
1.000000
1.000000
1.000000
1.000000
1.000000
1.000000
1.000000
1.000000
1.000000
1.000000
1.000000
1.000000
1.000000
1.000000
1.000000
1.000000
1.000000
1.000000
1.000000
1.000000
1.000000
1.000000
1.000000
1.000000
1.000000
1.000000
1.000000
1.000000
1.000000
1.000000
1.000000
1.000000
1.000000
1.000000
1.000000
1.000000
1.000000
1.000000
1.000000
1.000000
1.000000
1.000000
1.000000
1.000000
1.000000
1.000000
1.000000
1.000000
1.000000
1.000000
1.000000
1.000000
1.000000
1.000000
1.000000
1.000000
1.000000
1.000000
1.000000
1.000000
1.000000
1.000000
1.000000
1.000000
1.000000
1.000000
1.000000
1.000000
1.000000
1.000000
1.000000
1.000000
1.000000
1.000000
1.000000
1.000000
1.000000
1.000000
1.000000
1.000000
1.000000
1.000000
1.000000
1.000000
1.000000
1.000000
1.000000
1.000000
1.000000
1.000000
1.000000
1.000000
1.000000
1.000000
1.000000
1.000000
1.000000
1.000000
1.000000
1.000000
1.000000
1.000000
1.000000
1.000000
1.000000
1.000000
1.000000
1.000000
1.000000
1.000000
1.000000
1.000000
1.000000
1.000000
1.000000
1.000000
1.000000
1.000000
1.000000
1.000000
1.000000
1.000000
1.000000
1.000000
1.000000
1.000000
1.000000
1.000000
1.000000
1.000000
1.000000
1.000000
1.000000
1.000000
1.000000
1.000000
1.000000
1.000000
1.000000
1.000000
1.000000
1.000000
1.000000
1.000000
1.000000
1.000000
1.000000
1.000000
1.000000
1.000000
1.000000
1.000000
1.000000
1.000000
1.000000
1.000000
1.000000
1.000000
1.000000
1.000000
1.000000
1.000000
1.000000
1.000000
1.000000
1.000000
1.000000
1.000000
1.000000
1.000000
1.000000
1.000000
1.000000
1.000000
1.000000
1.000000
1.000000
1.000000
1.000000
1.000000
1.000000
1.000000
1.000000
1.000000
1.000000
1.000000
1.000000
1.000000
1.000000
1.000000
1.000000
1.000000
1.000000
1.000000
1.000000
1.000000
1.000000
1.000000
1.000000
1.000000
1.000000
1.000000
1.000000
1.000000
1.000000
1.000000
1.000000
1.000000
1.000000
1.000000
1.000000
1.000000
1.000000
1.000000
1.000000
1.000000
1.000000
1.000000
1.000000
1.000000
1.000000
1.000000
1.000000
1.000000
1.000000
1.000000
1.000000
1.000000
1.000000
1.000000
1.000000
1.000000
1.000000
1.000000
1.000000
1.000000
1.000000
1.000000
1.000000
1.000000
1.000000
1.000000
1.000000
1.000000
1.000000
1.000000
1.000000
1.000000
1.000000
1.000000
1.000000
1.000000
</diameter>
<mass num="747">
0.403639
0.584458
0.584458
0.584458
0.584458
0.584458
0.584458
0.584458
0.597575
0.556458
0.556458
0.584458
0.584458
0.584458
0.598458
0.236214
0.236214
0.236214
0.403639
0.584458
0.584458
0.584458
0.584458
0.584458
0.584458
0.584458
0.597575
0.556458
0.556458
0.584458
0.584458
0.584458
0.598458
0.236214
0.236214
0.236214
0.403639
0.584458
0.584458
0.584458
0.584458
0.584458
0.584458
0.584458
0.597575
0.556458
0.556458
0.584458
0.584458
0.584458
0.598458
0.236214
0.236214
0.236214
0.403639
0.584458
0.584458
0.584458
0.584458
0.584458
0.584458
0.584458
0.597575
0.556458
0.556458
0.584458
0.584458
0.584458
0.598458
0.236214
0.236214
0.236214
0.403639
0.584458
0.584458
0.584458
0.584458
0.584458
0.584458
0.584458
0.597575
0.556458
0.556458
0.584458
0.584458
0.584458
0.598458
0.236214
0.236214
0.236214
0.403639
0.584458
0.584458
0.584458
0.584458
0.584458
0.584458
0.556458
0.597575
0.556458
0.556458
0.584458
0.584458
0.584458
0.598458
0.236214
0.236214
0.236214
0.236214
0.403639
0.584458
0.584458
0.584458
0.584458
0.584458
0.584458
0.556458
0.597575
0.556458
0.556458
0.584458
0.584458
0.584458
0.598458
0.236214
0.236214
0.236214
0.236214
0.403639
0.584458
0.584458
0.584458
0.584458
0.584458
0.584458
0.556458
0.597575
0.556458
0.556458
0.584458
0.584458
0.584458
0.598458
0.236214
0.236214
0.236214
0.236214
0.403639
0.584458
0.584458
0.584458
0.584458
0.584458
0.584458
0.556458
0.597575
0.556458
0.556458
0.584458
0.584458
0.584458
0.598458
0.236214
0.236214
0.236214
0.236214
0.403639
0.584458
0.584458
0.584458
0.584458
0.584458
0.584458
0.556458
0.597575
0.556458
0.556458
0.584458
0.584458
0.584458
0.598458
0.236214
0.236214
0.236214
0.236214
0.403639
0.584458
0.584458
0.584458
0.584458
0.584458
0.584458
0.556458
0.597575
0.556458
0.556458
0.584458
0.584458
0.584458
0.598458
0.236214
0.236214
0.236214
0.236214
0.403639
0.584458
0.584458
0.584458
0.584458
0.584458
0.584458
0.556458
0.597575
0.556458
0.556458
0.584458
0.584458
0.584458
0.598458
0.236214
0.236214
0.236214
0.236214
0.403639
0.584458
0.584458
0.584458
0.584458
0.584458
0.584458
0.556458
0.597575
0.556458
0.556458
0.584458
0.584458
0.584458
0.598458
0.236214
0.236214
0.236214
0.236214
0.403639
0.584458
0.584458
0.584458
0.584458
0.584458
0.584458
0.556458
0.597575
0.556458
0.556458
0.584458
0.584458
0.584458
0.598458
0.236214
0.236214
0.236214
0.236214
0.403639
0.584458
0.584458
0.584458
0.584458
0.584458
0.584458
0.556458
0.597575
0.556458
0.556458
0.584458
0.584458
0.584458
0.598458
0.236214
0.236214
0.236214
0.236214
0.403639
0.584458
0.584458
0.584458
0.584458
0.584458
0.584458
0.556458
0.597575
0.556458
0.556458
0.584458
0.584458
0.584458
0.598458
0.236214
0.236214
0.236214
0.236214
0.403639
0.584458
0.584458
0.584458
0.584458
0.584458
0.584458
0.556458
0.597575
0.556458
0.556458
0.584458
0.584458
0.584458
0.598458
0.236214
0.236214
0.236214
0.236214
0.611858
0.723277
0.556457
0.737278
0.751278
0.779278
0.793278
0.208819
0.208819
0.611858
0.723277
0.556457
0.737278
0.751278
0.779278
0.793278
0.208819
0.208819
0.611858
0.723277
0.556457
0.737278
0.751278
0.779278
0.793278
0.208819
0.208819
0.611858
0.723277
0.556457
0.737278
0.751278
0.779278
0.793278
0.208819
0.208819
0.611858
0.723277
0.556457
0.737278
0.751278
0.779278
0.793278
0.208819
0.208819
0.611858
0.723277
0.556457
0.737278
0.751278
0.779278
0.793278
0.208819
0.208819
0.611858
0.723277
0.556457
0.737278
0.751278
0.779278
0.793278
0.208819
0.208819
0.611858
0.723277
0.556457
0.737278
0.751278
0.779278
0.793278
0.208819
0.208819
0.403639
0.584458
0.584458
0.584458
0.584458
0.584458
0.584458
0.584458
0.625247
0.403639
0.584458
0.584458
0.584458
0.584458
0.584458
0.584458
0.584458
0.625247
0.403639
0.584458
0.584458
0.584458
0.584458
0.584458
0.584458
0.584458
0.625247
0.403639
0.584458
0.584458
0.584458
0.584458
0.584458
0.584458
0.584458
0.625247
0.403639
0.584458
0.584458
0.584458
0.584458
0.584458
0.584458
0.584458
0.625247
0.403639
0.584458
0.584458
0.584458
0.584458
0.584458
0.584458
0.584458
0.625247
0.403639
0.584458
0.584458
0.584458
0.584458
0.584458
0.584458
0.584458
0.625247
0.403639
0.584458
0.584458
0.584458
0.584458
0.584458
0.584458
0.584458
0.625247
0.403639
0.584458
0.584458
0.584458
0.584458
0.584458
0.584458
0.584458
0.625247
0.403639
0.584458
0.584458
0.584458
0.584458
0.584458
0.584458
0.584458
0.625247
0.403639
0.584458
0.584458
0.584458
0.584458
0.584458
0.584458
0.584458
0.625247
0.403639
0.584458
0.584458
0.584458
0.584458
0.584458
0.584458
0.584458
0.625247
0.403639
0.584458
0.584458
0.584458
0.584458
0.584458
0.584458
0.584458
0.625247
0.403639
0.584458
0.584458
0.584458
0.584458
0.584458
0.584458
0.584458
0.625247
0.403639
0.584458
0.584458
0.584458
0.584458
0.584458
0.584458
0.584458
0.625247
0.403639
0.584458
0.584458
0.584458
0.584458
0.584458
0.584458
0.584458
0.625247
0.403639
0.584458
0.584458
0.584458
0.584458
0.584458
0.584458
0.584458
0.625247
0.403639
0.584458
0.584458
0.584458
0.584458
0.584458
0.584458
0.584458
0.625247
0.403639
0.584458
0.584458
0.584458
0.584458
0.584458
0.584458
0.584458
0.625247
0.403639
0.584458
0.584458
0.584458
0.584458
0.584458
0.584458
0.584458
0.625247
0.403639
0.584458
0.584458
0.584458
0.584458
0.584458
0.584458
0.584458
0.625247
0.403639
0.584458
0.584458
0.584458
0.584458
0.584458
0.584458
0.584458
0.625247
0.403639
0.584458
0.584458
0.584458
0.584458
0.584458
0.584458
0.584458
0.625247
0.403639
0.584458
0.584458
0.584458
0.584458
0.584458
0.584458
0.584458
0.625247
0.403639
0.584458
0.584458
0.584458
0.584458
0.584458
0.584458
0.584458
0.625247
1.000000
1.000000
1.000000
1.000000
1.000000
1.000000
1.000000
1.000000
1.000000
1.000000
1.000000
1.000000
1.000000
1.000000
1.000000
1.000000
1.000000
1.000000
1.000000
1.000000
1.000000
1.000000
1.000000
1.000000
1.000000
1.000000
1.000000
1.000000
1.000000
1.000000
1.000000
1.000000
1.000000
1.000000
1.000000
1.000000
1.000000
1.000000
1.000000
1.000000
1.000000
1.000000
1.000000
1.000000
1.000000
1.000000
1.000000
1.000000
1.000000
1.000000
1.000000
1.000000
1.000000
1.000000
1.000000
1.000000
1.000000
1.000000
1.000000
1.000000
1.000000
1.000000
1.000000
1.000000
1.000000
1.000000
1.000000
1.000000
1.000000
1.000000
1.000000
1.000000
1.000000
1.000000
1.000000
1.000000
1.000000
1.000000
1.000000
1.000000
1.000000
1.000000
1.000000
1.000000
1.000000
1.000000
1.000000
1.000000
1.000000
1.000000
1.000000
1.000000
1.000000
1.000000
1.000000
1.000000
1.000000
1.000000
1.000000
1.000000
1.000000
1.000000
1.000000
1.000000
1.000000
1.000000
1.000000
1.000000
1.000000
1.000000
1.000000
1.000000
1.000000
1.000000
1.000000
1.000000
1.000000
1.000000
1.000000
1.000000
1.000000
1.000000
1.000000
1.000000
1.000000
1.000000
1.000000
1.000000
1.000000
1.000000
1.000000
1.000000
</mass>
<charge num="747">
0.000000
0.000000
0.000000
0.000000
0.000000
0.000000
0.000000
0.000000
0.000000
0.000000
0.000000
0.000000
0.000000
0.000000
0.000000
0.000000
0.000000
0.000000
0.000000
0.000000
0.000000
0.000000
0.000000
0.000000
0.000000
0.000000
0.000000
0.000000
0.000000
0.000000
0.000000
0.000000
0.000000
0.000000
0.000000
0.000000
0.000000
0.000000
0.000000
0.000000
0.000000
0.000000
0.000000
0.000000
0.000000
0.000000
0.000000
0.000000
0.000000
0.000000
0.000000
0.000000
0.000000
0.000000
0.000000
0.000000
0.000000
0.000000
0.000000
0.000000
0.000000
0.000000
0.000000
0.000000
0.000000
0.000000
0.000000
0.000000
0.000000
0.000000
0.000000
0.000000
0.000000
0.000000
0.000000
0.000000
0.000000
0.000000
0.000000
0.000000
0.000000
0.000000
0.000000
0.000000
0.000000
0.000000
0.000000
0.000000
0.000000
0.000000
0.000000
0.000000
0.000000
0.000000
0.000000
0.000000
0.000000
0.000000
0.000000
0.000000
0.000000
0.000000
0.000000
0.000000
0.000000
0.000000
0.000000
0.000000
0.000000
0.000000
0.000000
0.000000
0.000000
0.000000
0.000000
0.000000
0.000000
0.000000
0.000000
0.000000
0.000000
0.000000
0.000000
0.000000
0.000000
0.000000
0.000000
0.000000
0.000000
0.000000
0.000000
0.000000
0.000000
0.000000
0.000000
0.000000
0.000000
0.000000
0.000000
0.000000
0.000000
0.000000
0.000000
0.000000
0.000000
0.000000
0.000000
0.000000
0.000000
0.000000
0.000000
0.000000
0.000000
0.000000
0.000000
0.000000
0.000000
0.000000
0.000000
0.000000
0.000000
0.000000
0.000000
0.000000
0.000000
0.000000
0.000000
0.000000
0.000000
0.000000
0.000000
0.000000
0.000000
0.000000
0.000000
0.000000
0.000000
0.000000
0.000000
0.000000
0.000000
0.000000
0.000000
0.000000
0.000000
0.000000
0.000000
0.000000
0.000000
0.000000
0.000000
0.000000
0.000000
0.000000
0.000000
0.000000
0.000000
0.000000
0.000000
0.000000
0.000000
0.000000
0.000000
0.000000
0.000000
0.000000
0.000000
0.000000
0.000000
0.000000
0.000000
0.000000
0.000000
0.000000
0.000000
0.000000
0.000000
0.000000
0.000000
0.000000
0.000000
0.000000
0.000000
0.000000
0.000000
0.000000
0.000000
0.000000
0.000000
0.000000
0.000000
0.000000
0.000000
0.000000
0.000000
0.000000
0.000000
0.000000
0.000000
0.000000
0.000000
0.000000
0.000000
0.000000
0.000000
0.000000
0.000000
0.000000
0.000000
0.000000
0.000000
0.000000
0.000000
0.000000
0.000000
0.000000
0.000000
0.000000
0.000000
0.000000
0.000000
0.000000
0.000000
0.000000
0.000000
0.000000
0.000000
0.000000
0.000000
0.000000
0.000000
0.000000
0.000000
0.000000
0.000000
0.000000
0.000000
0.000000
0.000000
0.000000
0.000000
0.000000
0.000000
0.000000
0.000000
0.000000
0.000000
0.000000
0.000000
0.000000
0.000000
0.000000
0.000000
0.000000
0.000000
0.000000
0.000000
0.000000
0.000000
0.000000
0.000000
0.000000
0.000000
0.000000
0.000000
0.000000
0.000000
0.000000
0.000000
0.000000
0.000000
0.000000
0.000000
0.000000
0.000000
0.000000
0.000000
0.000000
0.000000
0.000000
0.000000
0.000000
0.000000
0.000000
0.000000
0.000000
0.000000
0.000000
0.000000
0.000000
0.000000
0.000000
0.000000
0.000000
0.000000
0.000000
0.000000
0.000000
0.000000
0.000000
0.000000
0.000000
0.000000
0.000000
0.000000
0.000000
0.000000
0.000000
0.000000
0.000000
0.000000
0.000000
0.000000
0.000000
0.000000
0.000000
0.000000
0.000000
0.000000
0.000000
0.000000
0.000000
0.000000
0.000000
0.000000
0.000000
0.000000
0.000000
0.000000
0.000000
0.000000
0.000000
0.000000
0.000000
0.000000
0.000000
0.000000
0.000000
0.000000
0.000000
0.000000
0.000000
0.000000
0.000000
0.000000
0.000000
0.000000
0.000000
0.000000
0.000000
0.000000
0.000000
0.000000
0.000000
0.000000
0.000000
0.000000
0.000000
0.000000
0.000000
0.000000
0.000000
0.000000
0.000000
0.000000
0.000000
0.000000
0.000000
0.000000
0.000000
0.000000
0.000000
0.000000
0.000000
0.000000
0.000000
0.000000
0.000000
0.000000
0.000000
0.000000
0.000000
0.000000
0.000000
0.000000
0.000000
0.000000
0.000000
0.000000
0.000000
0.000000
0.000000
0.000000
0.000000
0.000000
0.000000
0.000000
0.000000
0.000000
0.000000
0.000000
0.000000
0.000000
0.000000
0.000000
0.000000
0.000000
0.000000
0.000000
0.000000
0.000000
0.000000
0.000000
0.000000
0.000000
0.000000
0.000000
0.000000
0.000000
0.000000
0.000000
0.000000
0.000000
0.000000
0.000000
0.000000
0.000000
0.000000
0.000000
0.000000
0.000000
0.000000
0.000000
0.000000
0.000000
0.000000
0.000000
0.000000
0.000000
0.000000
0.000000
0.000000
0.000000
0.000000
0.000000
0.000000
0.000000
0.000000
0.000000
0.000000
0.000000
0.000000
0.000000
0.000000
0.000000
0.000000
0.000000
0.000000
0.000000
0.000000
0.000000
0.000000
0.000000
0.000000
0.000000
0.000000
0.000000
0.000000
0.000000
0.000000
0.000000
0.000000
0.000000
0.000000
0.000000
0.000000
0.000000
0.000000
0.000000
0.000000
0.000000
0.000000
0.000000
0.000000
0.000000
0.000000
0.000000
0.000000
0.000000
0.000000
0.000000
0.000000
0.000000
0.000000
0.000000
0.000000
0.000000
0.000000
0.000000
0.000000
0.000000
0.000000
0.000000
0.000000
0.000000
0.000000
0.000000
0.000000
0.000000
0.000000
0.000000
0.000000
0.000000
0.000000
0.000000
0.000000
0.000000
0.000000
0.000000
0.000000
0.000000
0.000000
0.000000
0.000000
0.000000
0.000000
0.000000
0.000000
0.000000
0.000000
0.000000
0.000000
0.000000
0.000000
0.000000
0.000000
0.000000
0.000000
0.000000
0.000000
0.000000
0.000000
0.000000
0.000000
0.000000
0.000000
0.000000
0.000000
0.000000
0.000000
0.000000
0.000000
0.000000
0.000000
0.000000
0.000000
0.000000
0.000000
0.000000
0.000000
0.000000
0.000000
0.000000
0.000000
0.000000
0.000000
0.000000
0.000000
0.000000
0.000000
0.000000
0.000000
0.000000
0.000000
0.000000
0.000000
0.000000
0.000000
0.000000
0.000000
0.000000
0.000000
0.000000
0.000000
0.000000
0.000000
0.000000
0.000000
0.000000
0.000000
0.000000
0.000000
0.000000
0.000000
0.000000
0.000000
0.000000
0.000000
0.000000
0.000000
0.000000
0.000000
0.000000
0.000000
0.000000
0.000000
0.000000
0.000000
0.000000
0.000000
0.000000
0.000000
0.000000
0.000000
0.000000
0.000000
0.000000
0.000000
0.000000
0.000000
0.000000
0.000000
0.000000
0.000000
0.000000
0.000000
0.000000
0.000000
0.000000
0.000000
0.000000
0.000000
0.000000
0.000000
0.000000
0.000000
0.000000
0.000000
0.000000
0.000000
0.000000
0.000000
0.000000
0.000000
0.000000
0.000000
0.000000
0.000000
0.000000
0.000000
0.000000
0.000000
0.000000
0.000000
0.000000
0.000000
0.000000
0.000000
0.000000
0.000000
0.000000
0.000000
0.000000
0.000000
0.000000
0.000000
0.000000
0.000000
0.000000
0.000000
0.000000
0.000000
0.000000
0.000000
0.000000
0.000000
0.000000
0.000000
0.000000
0.000000
0.000000
0.000000
0.000000
0.000000
0.000000
0.000000
0.000000
0.000000
0.000000
0.000000
0.000000
0.000000
0.000000
0.000000
0.000000
0.000000
0.000000
0.000000
0.000000
0.000000
0.000000
0.000000
0.000000
0.000000
0.000000
0.000000
0.000000
</charge>
<bond num="589">
tail-ter2 0 1
tail-tail 1 2
tail-tail 2 3
tail-tail 3 4
tail-tail 4 5
tail-tail 5 6
tail-tail 6 7
amide-tail 7 8
amide-mhead2 8 9
mhead2-oh1 9 15
mhead2-tail 9 10
mhead2-oh2 9 16
tail-tail 10 11
oh3-tail 10 17
tail-tail 11 12
tail-tail 12 13
tail-tail 13 14
tail-ter2 18 19
tail-tail 19 20
tail-tail 20 21
tail-tail 21 22
tail-tail 22 23
tail-tail 23 24
tail-tail 24 25
amide-tail 25 26
amide-mhead2 26 27
mhead2-oh1 27 33
mhead2-oh2 27 34
mhead2-tail 27 28
tail-tail 28 29
oh3-tail 28 35
tail-tail 29 30
tail-tail 30 31
tail-tail 31 32
tail-ter2 36 37
tail-tail 37 38
tail-tail 38 39
tail-tail 39 40
tail-tail 40 41
tail-tail 41 42
tail-tail 42 43
amide-tail 43 44
amide-mhead2 44 45
mhead2-oh2 45 52
mhead2-oh1 45 51
mhead2-tail 45 46
tail-tail 46 47
oh3-tail 46 53
tail-tail 47 48
tail-tail 48 49
tail-tail 49 50
tail-ter2 54 55
tail-tail 55 56
tail-tail 56 57
tail-tail 57 58
tail-tail 58 59
tail-tail 59 60
tail-tail 60 61
amide-tail 61 62
amide-mhead2 62 63
mhead2-oh2 63 70
mhead2-oh1 63 69
mhead2-tail 63 64
tail-tail 64 65
oh3-tail 64 71
tail-tail 65 66
tail-tail 66 67
tail-tail 67 68
tail-ter2 72 73
tail-tail 73 74
tail-tail 74 75
tail-tail 75 76
tail-tail 76 77
tail-tail 77 78
tail-tail 78 79
amide-tail 79 80
amide-mhead2 80 81
mhead2-oh1 81 87
mhead2-tail 81 82
mhead2-oh2 81 88
tail-tail 82 83
oh3-tail 82 89
tail-tail 83 84
tail-tail 84 85
tail-tail 85 86
tail-ter2 90 91
tail-tail 91 92
tail-tail 92 93
tail-tail 93 94
tail-tail 94 95
tail-tail 95 96
tail-tail 96 97
amide-tail 97 98
oh4-tail 97 108
amide-mhead2 98 99
mhead2-oh1 99 105
mhead2-oh2 99 106
mhead2-tail 99 100
tail-tail 100 101
oh3-tail 100 107
tail-tail 101 102
tail-tail 102 103
tail-tail 103 104
tail-ter2 109 110
tail-tail 110 111
tail-tail 111 112
tail-tail 112 113
tail-tail 113 114
tail-tail 114 115
tail-tail 115 116
oh4-tail 116 127
amide-tail 116 117
amide-mhead2 117 118
mhead2-oh2 118 125
mhead2-oh1 118 124
mhead2-tail 118 119
tail-tail 119 120
oh3-tail 119 126
tail-tail 120 121
tail-tail 121 122
tail-tail 122 123
tail-ter2 128 129
tail-tail 129 130
tail-tail 130 131
tail-tail 131 132
tail-tail 132 133
tail-tail 133 134
tail-tail 134 135
amide-tail 135 136
oh4-tail 135 146
amide-mhead2 136 137
mhead2-oh2 137 144
mhead2-tail 137 138
mhead2-oh1 137 143
oh3-tail 138 145
tail-tail 138 139
tail-tail 139 140
tail-tail 140 141
tail-tail 141 142
tail-ter2 147 148
tail-tail 148 149
tail-tail 149 150
tail-tail 150 151
tail-tail 151 152
tail-tail 152 153
tail-tail 153 154
oh4-tail 154 165
amide-tail 154 155
amide-mhead2 155 156
mhead2-oh2 156 163
mhead2-oh1 156 162
mhead2-tail 156 157
oh3-tail 157 164
tail-tail 157 158
tail-tail 158 159
tail-tail 159 160
tail-tail 160 161
tail-ter2 166 167
tail-tail 167 168
tail-tail 168 169
tail-tail 169 170
tail-tail 170 171
tail-tail 171 172
tail-tail 172 173
amide-tail 173 174
oh4-tail 173 184
amide-mhead2 174 175
mhead2-tail 175 176
mhead2-oh1 175 181
mhead2-oh2 175 182
tail-tail 176 177
oh3-tail 176 183
tail-tail 177 178
tail-tail 178 179
tail-tail 179 180
tail-ter2 185 186
tail-tail 186 187
tail-tail 187 188
tail-tail 188 189
tail-tail 189 190
tail-tail 190 191
tail-tail 191 192
oh4-tail 192 203
amide-tail 192 193
amide-mhead2 193 194
mhead2-oh1 194 200
mhead2-tail 194 195
mhead2-oh2 194 201
tail-tail 195 196
oh3-tail 195 202
tail-tail 196 197
tail-tail 197 198
tail-tail 198 199
tail-ter2 204 205
tail-tail 205 206
tail-tail 206 207
tail-tail 207 208
tail-tail 208 209
tail-tail 209 210
tail-tail 210 211
amide-tail 211 212
oh4-tail 211 222
amide-mhead2 212 213
mhead2-oh1 213 219
mhead2-oh2 213 220
mhead2-tail 213 214
oh3-tail 214 221
tail-tail 214 215
tail-tail 215 216
tail-tail 216 217
tail-tail 217 218
tail-ter2 223 224
tail-tail 224 225
tail-tail 225 226
tail-tail 226 227
tail-tail 227 228
tail-tail 228 229
tail-tail 229 230
oh4-tail 230 241
amide-tail 230 231
amide-mhead2 231 232
mhead2-oh2 232 239
mhead2-oh1 232 238
mhead2-tail 232 233
tail-tail 233 234
oh3-tail 233 240
tail-tail 234 235
tail-tail 235 236
tail-tail 236 237
tail-ter2 242 243
tail-tail 243 244
tail-tail 244 245
tail-tail 245 246
tail-tail 246 247
tail-tail 247 248
tail-tail 248 249
amide-tail 249 250
oh4-tail 249 260
amide-mhead2 250 251
mhead2-oh2 251 258
mhead2-tail 251 252
mhead2-oh1 251 257
oh3-tail 252 259
tail-tail 252 253
tail-tail 253 254
tail-tail 254 255
tail-tail 255 256
tail-ter2 261 262
tail-tail 262 263
tail-tail 263 264
tail-tail 264 265
tail-tail 265 266
tail-tail 266 267
tail-tail 267 268
oh4-tail 268 279
amide-tail 268 269
amide-mhead2 269 270
mhead2-tail 270 271
mhead2-oh2 270 277
mhead2-oh1 270 276
tail-tail 271 272
oh3-tail 271 278
tail-tail 272 273
tail-tail 273 274
tail-tail 274 275
tail-ter2 280 281
tail-tail 281 282
tail-tail 282 283
tail-tail 283 284
tail-tail 284 285
tail-tail 285 286
tail-tail 286 287
oh4-tail 287 298
amide-tail 287 288
amide-mhead2 288 289
mhead2-oh1 289 295
mhead2-oh2 289 296
mhead2-tail 289 290
tail-tail 290 291
oh3-tail 290 297
tail-tail 291 292
tail-tail 292 293
tail-tail 293 294
tail-ter2 299 300
tail-tail 300 301
tail-tail 301 302
tail-tail 302 303
tail-tail 303 304
tail-tail 304 305
tail-tail 305 306
oh4-tail 306 317
amide-tail 306 307
amide-mhead2 307 308
mhead2-oh1 308 314
mhead2-oh2 308 315
mhead2-tail 308 309
tail-tail 309 310
oh3-tail 309 316
tail-tail 310 311
tail-tail 311 312
tail-tail 312 313
chead-ring1 318 319
chead-ring2 318 320
ring1-ring4 319 322
ring1-ring3 319 321
ring1-ring2 319 320
chme-ring2 320 325
ring2-ring3 320 321
chme-ring3 321 326
ring3-ring4 321 322
ctail-ring4 322 323
ctail-cterm 323 324
chead-ring2 327 329
chead-ring1 327 328
ring1-ring3 328 330
ring1-ring2 328 329
ring1-ring4 328 331
chme-ring2 329 334
ring2-ring3 329 330
ring3-ring4 330 331
chme-ring3 330 335
ctail-ring4 331 332
ctail-cterm 332 333
chead-ring2 336 338
chead-ring1 336 337
ring1-ring4 337 340
ring1-ring2 337 338
ring1-ring3 337 339
chme-ring2 338 343
ring2-ring3 338 339
ring3-ring4 339 340
chme-ring3 339 344
ctail-ring4 340 341
ctail-cterm 341 342
chead-ring2 345 347
chead-ring1 345 346
ring1-ring4 346 349
ring1-ring2 346 347
ring1-ring3 346 348
chme-ring2 347 352
ring2-ring3 347 348
ring3-ring4 348 349
chme-ring3 348 353
ctail-ring4 349 350
ctail-cterm 350 351
chead-ring2 354 356
chead-ring1 354 355
ring1-ring3 355 357
ring1-ring4 355 358
ring1-ring2 355 356
ring2-ring3 356 357
chme-ring2 356 361
chme-ring3 357 362
ring3-ring4 357 358
ctail-ring4 358 359
ctail-cterm 359 360
chead-ring1 363 364
chead-ring2 363 365
ring1-ring4 364 367
ring1-ring2 364 365
ring1-ring3 364 366
ring2-ring3 365 366
chme-ring2 365 370
chme-ring3 366 371
ring3-ring4 366 367
ctail-ring4 367 368
ctail-cterm 368 369
chead-ring1 372 373
chead-ring2 372 374
ring1-ring2 373 374
ring1-ring4 373 376
ring1-ring3 373 375
chme-ring2 374 379
ring2-ring3 374 375
chme-ring3 375 380
ring3-ring4 375 376
ctail-ring4 376 377
ctail-cterm 377 378
chead-ring2 381 383
chead-ring1 381 382
ring1-ring4 382 385
ring1-ring3 382 384
ring1-ring2 382 383
ring2-ring3 383 384
chme-ring2 383 388
ring3-ring4 384 385
chme-ring3 384 389
ctail-ring4 385 386
ctail-cterm 386 387
tail-ter2 390 391
tail-tail 391 392
tail-tail 392 393
tail-tail 393 394
tail-tail 394 395
tail-tail 395 396
tail-tail 396 397
head-tail 397 398
tail-ter2 399 400
tail-tail 400 401
tail-tail 401 402
tail-tail 402 403
tail-tail 403 404
tail-tail 404 405
tail-tail 405 406
head-tail 406 407
tail-ter2 408 409
tail-tail 409 410
tail-tail 410 411
tail-tail 411 412
tail-tail 412 413
tail-tail 413 414
tail-tail 414 415
head-tail 415 416
tail-ter2 417 418
tail-tail 418 419
tail-tail 419 420
tail-tail 420 421
tail-tail 421 422
tail-tail 422 423
tail-tail 423 424
head-tail 424 425
tail-ter2 426 427
tail-tail 427 428
tail-tail 428 429
tail-tail 429 430
tail-tail 430 431
tail-tail 431 432
tail-tail 432 433
head-tail 433 434
tail-ter2 435 436
tail-tail 436 437
tail-tail 437 438
tail-tail 438 439
tail-tail 439 440
tail-tail 440 441
tail-tail 441 442
head-tail 442 443
tail-ter2 444 445
tail-tail 445 446
tail-tail 446 447
tail-tail 447 448
tail-tail 448 449
tail-tail 449 450
tail-tail 450 451
head-tail 451 452
tail-ter2 453 454
tail-tail 454 455
tail-tail 455 456
tail-tail 456 457
tail-tail 457 458
tail-tail 458 459
tail-tail 459 460
head-tail 460 461
tail-ter2 462 463
tail-tail 463 464
tail-tail 464 465
tail-tail 465 466
tail-tail 466 467
tail-tail 467 468
tail-tail 468 469
head-tail 469 470
tail-ter2 471 472
tail-tail 472 473
tail-tail 473 474
tail-tail 474 475
tail-tail 475 476
tail-tail 476 477
tail-tail 477 478
head-tail 478 479
tail-ter2 480 481
tail-tail 481 482
tail-tail 482 483
tail-tail 483 484
tail-tail 484 485
tail-tail 485 486
tail-tail 486 487
head-tail 487 488
tail-ter2 489 490
tail-tail 490 491
tail-tail 491 492
tail-tail 492 493
tail-tail 493 494
tail-tail 494 495
tail-tail 495 496
head-tail 496 497
tail-ter2 498 499
tail-tail 499 500
tail-tail 500 501
tail-tail 501 502
tail-tail 502 503
tail-tail 503 504
tail-tail 504 505
head-tail 505 506
tail-ter2 507 508
tail-tail 508 509
tail-tail 509 510
tail-tail 510 511
tail-tail 511 512
tail-tail 512 513
tail-tail 513 514
head-tail 514 515
tail-ter2 516 517
tail-tail 517 518
tail-tail 518 519
tail-tail 519 520
tail-tail 520 521
tail-tail 521 522
tail-tail 522 523
head-tail 523 524
tail-ter2 525 526
tail-tail 526 527
tail-tail 527 528
tail-tail 528 529
tail-tail 529 530
tail-tail 530 531
tail-tail 531 532
head-tail 532 533
tail-ter2 534 535
tail-tail 535 536
tail-tail 536 537
tail-tail 537 538
tail-tail 538 539
tail-tail 539 540
tail-tail 540 541
head-tail 541 542
tail-ter2 543 544
tail-tail 544 545
tail-tail 545 546
tail-tail 546 547
tail-tail 547 548
tail-tail 548 549
tail-tail 549 550
head-tail 550 551
tail-ter2 552 553
tail-tail 553 554
tail-tail 554 555
tail-tail 555 556
tail-tail 556 557
tail-tail 557 558
tail-tail 558 559
head-tail 559 560
tail-ter2 561 562
tail-tail 562 563
tail-tail 563 564
tail-tail 564 565
tail-tail 565 566
tail-tail 566 567
tail-tail 567 568
head-tail 568 569
tail-ter2 570 571
tail-tail 571 572
tail-tail 572 573
tail-tail 573 574
tail-tail 574 575
tail-tail 575 576
tail-tail 576 577
head-tail 577 578
tail-ter2 579 580
tail-tail 580 581
tail-tail 581 582
tail-tail 582 583
tail-tail 583 584
tail-tail 584 585
tail-tail 585 586
head-tail 586 587
tail-ter2 588 589
tail-tail 589 590
tail-tail 590 591
tail-tail 591 592
tail-tail 592 593
tail-tail 593 594
tail-tail 594 595
head-tail 595 596
tail-ter2 597 598
tail-tail 598 599
tail-tail 599 600
tail-tail 600 601
tail-tail 601 602
tail-tail 602 603
tail-tail 603 604
head-tail 604 605
tail-ter2 606 607
tail-tail 607 608
tail-tail 608 609
tail-tail 609 610
tail-tail 610 611
tail-tail 611 612
tail-tail 612 613
head-tail 613 614
</bond>
<angle num="740">
tail-tail-ter2 0 1 2
tail-tail-tail 1 2 3
tail-tail-tail 2 3 4
tail-tail-tail 3 4 5
tail-tail-tail 4 5 6
tail-tail-tail 5 6 7
amide-tail-tail 6 7 8
mhead2-amide-tail 7 8 9
amide-mhead2-tail 8 9 10
amide-mhead2-oh1 8 9 15
amide-mhead2-oh2 8 9 16
mhead2-tail-tail 9 10 11
mhead2-tail-oh3-a 9 10 17
mhead2-tail-oh3-b 9 10 17
oh1-mhead2-tail 10 9 15
oh2-mhead2-tail 10 9 16
tail-tail-tail 10 11 12
oh3-tail-tail 11 10 17
tail-tail-tail 11 12 13
tail-tail-tail 12 13 14
oh1-mhead2-oh2 15 9 16
tail-tail-ter2 18 19 20
tail-tail-tail 19 20 21
tail-tail-tail 20 21 22
tail-tail-tail 21 22 23
tail-tail-tail 22 23 24
tail-tail-tail 23 24 25
amide-tail-tail 24 25 26
mhead2-amide-tail 25 26 27
amide-mhead2-tail 26 27 28
amide-mhead2-oh1 26 27 33
amide-mhead2-oh2 26 27 34
mhead2-tail-tail 27 28 29
mhead2-tail-oh3-a 27 28 35
mhead2-tail-oh3-b 27 28 35
oh1-mhead2-tail 28 27 33
oh2-mhead2-tail 28 27 34
tail-tail-tail 28 29 30
oh3-tail-tail 29 28 35
tail-tail-tail 29 30 31
tail-tail-tail 30 31 32
oh1-mhead2-oh2 33 27 34
tail-tail-ter2 36 37 38
tail-tail-tail 37 38 39
tail-tail-tail 38 39 40
tail-tail-tail 39 40 41
tail-tail-tail 40 41 42
tail-tail-tail 41 42 43
amide-tail-tail 42 43 44
mhead2-amide-tail 43 44 45
amide-mhead2-tail 44 45 46
amide-mhead2-oh1 44 45 51
amide-mhead2-oh2 44 45 52
mhead2-tail-tail 45 46 47
mhead2-tail-oh3-a 45 46 53
mhead2-tail-oh3-b 45 46 53
oh1-mhead2-tail 46 45 51
oh2-mhead2-tail 46 45 52
tail-tail-tail 46 47 48
oh3-tail-tail 47 46 53
tail-tail-tail 47 48 49
tail-tail-tail 48 49 50
oh1-mhead2-oh2 51 45 52
tail-tail-ter2 54 55 56
tail-tail-tail 55 56 57
tail-tail-tail 56 57 58
tail-tail-tail 57 58 59
tail-tail-tail 58 59 60
tail-tail-tail 59 60 61
amide-tail-tail 60 61 62
mhead2-amide-tail 61 62 63
amide-mhead2-tail 62 63 64
amide-mhead2-oh1 62 63 69
amide-mhead2-oh2 62 63 70
mhead2-tail-tail 63 64 65
mhead2-tail-oh3-a 63 64 71
mhead2-tail-oh3-b 63 64 71
oh1-mhead2-tail 64 63 69
oh2-mhead2-tail 64 63 70
tail-tail-tail 64 65 66
oh3-tail-tail 65 64 71
tail-tail-tail 65 66 67
tail-tail-tail 66 67 68
oh1-mhead2-oh2 69 63 70
tail-tail-ter2 72 73 74
tail-tail-tail 73 74 75
tail-tail-tail 74 75 76
tail-tail-tail 75 76 77
tail-tail-tail 76 77 78
tail-tail-tail 77 78 79
amide-tail-tail 78 79 80
mhead2-amide-tail 79 80 81
amide-mhead2-tail 80 81 82
amide-mhead2-oh1 80 81 87
amide-mhead2-oh2 80 81 88
mhead2-tail-tail 81 82 83
mhead2-tail-oh3-a 81 82 89
mhead2-tail-oh3-b 81 82 89
oh1-mhead2-tail 82 81 87
oh2-mhead2-tail 82 81 88
tail-tail-tail 82 83 84
oh3-tail-tail 83 82 89
tail-tail-tail 83 84 85
tail-tail-tail 84 85 86
oh1-mhead2-oh2 87 81 88
tail-tail-ter2 90 91 92
tail-tail-tail 91 92 93
tail-tail-tail 92 93 94
tail-tail-tail 93 94 95
tail-tail-tail 94 95 96
tail-tail-tail 95 96 97
amide-tail-tail 96 97 98
oh4-tail-tail 96 97 108
mhead2-amide-tail 97 98 99
amide-tail-oh4 98 97 108
amide-mhead2-tail 98 99 100
amide-mhead2-oh1 98 99 105
amide-mhead2-oh2 98 99 106
mhead2-tail-tail 99 100 101
mhead2-tail-oh3-a 99 100 107
mhead2-tail-oh3-b 99 100 107
oh1-mhead2-tail 100 99 105
oh2-mhead2-tail 100 99 106
tail-tail-tail 100 101 102
oh3-tail-tail 101 100 107
tail-tail-tail 101 102 103
tail-tail-tail 102 103 104
oh1-mhead2-oh2 105 99 106
tail-tail-ter2 109 110 111
tail-tail-tail 110 111 112
tail-tail-tail 111 112 113
tail-tail-tail 112 113 114
tail-tail-tail 113 114 115
tail-tail-tail 114 115 116
amide-tail-tail 115 116 117
oh4-tail-tail 115 116 127
mhead2-amide-tail 116 117 118
amide-tail-oh4 117 116 127
amide-mhead2-tail 117 118 119
amide-mhead2-oh1 117 118 124
amide-mhead2-oh2 117 118 125
mhead2-tail-tail 118 119 120
mhead2-tail-oh3-a 118 119 126
mhead2-tail-oh3-b 118 119 126
oh1-mhead2-tail 119 118 124
oh2-mhead2-tail 119 118 125
tail-tail-tail 119 120 121
oh3-tail-tail 120 119 126
tail-tail-tail 120 121 122
tail-tail-tail 121 122 123
oh1-mhead2-oh2 124 118 125
tail-tail-ter2 128 129 130
tail-tail-tail 129 130 131
tail-tail-tail 130 131 132
tail-tail-tail 131 132 133
tail-tail-tail 132 133 134
tail-tail-tail 133 134 135
amide-tail-tail 134 135 136
oh4-tail-tail 134 135 146
mhead2-amide-tail 135 136 137
amide-tail-oh4 136 135 146
amide-mhead2-tail 136 137 138
amide-mhead2-oh1 136 137 143
amide-mhead2-oh2 136 137 144
mhead2-tail-tail 137 138 139
mhead2-tail-oh3-a 137 138 145
mhead2-tail-oh3-b 137 138 145
oh1-mhead2-tail 138 137 143
oh2-mhead2-tail 138 137 144
tail-tail-tail 138 139 140
oh3-tail-tail 139 138 145
tail-tail-tail 139 140 141
tail-tail-tail 140 141 142
oh1-mhead2-oh2 143 137 144
tail-tail-ter2 147 148 149
tail-tail-tail 148 149 150
tail-tail-tail 149 150 151
tail-tail-tail 150 151 152
tail-tail-tail 151 152 153
tail-tail-tail 152 153 154
amide-tail-tail 153 154 155
oh4-tail-tail 153 154 165
mhead2-amide-tail 154 155 156
amide-tail-oh4 155 154 165
amide-mhead2-tail 155 156 157
amide-mhead2-oh1 155 156 162
amide-mhead2-oh2 155 156 163
mhead2-tail-tail 156 157 158
mhead2-tail-oh3-a 156 157 164
mhead2-tail-oh3-b 156 157 164
oh1-mhead2-tail 157 156 162
oh2-mhead2-tail 157 156 163
tail-tail-tail 157 158 159
oh3-tail-tail 158 157 164
tail-tail-tail 158 159 160
tail-tail-tail 159 160 161
oh1-mhead2-oh2 162 156 163
tail-tail-ter2 166 167 168
tail-tail-tail 167 168 169
tail-tail-tail 168 169 170
tail-tail-tail 169 170 171
tail-tail-tail 170 171 172
tail-tail-tail 171 172 173
amide-tail-tail 172 173 174
oh4-tail-tail 172 173 184
mhead2-amide-tail 173 174 175
amide-tail-oh4 174 173 184
amide-mhead2-tail 174 175 176
amide-mhead2-oh1 174 175 181
amide-mhead2-oh2 174 175 182
mhead2-tail-tail 175 176 177
mhead2-tail-oh3-a 175 176 183
mhead2-tail-oh3-b 175 176 183
oh1-mhead2-tail 176 175 181
oh2-mhead2-tail 176 175 182
tail-tail-tail 176 177 178
oh3-tail-tail 177 176 183
tail-tail-tail 177 178 179
tail-tail-tail 178 179 180
oh1-mhead2-oh2 181 175 182
tail-tail-ter2 185 186 187
tail-tail-tail 186 187 188
tail-tail-tail 187 188 189
tail-tail-tail 188 189 190
tail-tail-tail 189 190 191
tail-tail-tail 190 191 192
amide-tail-tail 191 192 193
oh4-tail-tail 191 192 203
mhead2-amide-tail 192 193 194
amide-tail-oh4 193 192 203
amide-mhead2-tail 193 194 195
amide-mhead2-oh1 193 194 200
amide-mhead2-oh2 193 194 201
mhead2-tail-tail 194 195 196
mhead2-tail-oh3-a 194 195 202
mhead2-tail-oh3-b 194 195 202
oh1-mhead2-tail 195 194 200
oh2-mhead2-tail 195 194 201
tail-tail-tail 195 196 197
oh3-tail-tail 196 195 202
tail-tail-tail 196 197 198
tail-tail-tail 197 198 199
oh1-mhead2-oh2 200 194 201
tail-tail-ter2 204 205 206
tail-tail-tail 205 206 207
tail-tail-tail 206 207 208
tail-tail-tail 207 208 209
tail-tail-tail 208 209 210
tail-tail-tail 209 210 211
amide-tail-tail 210 211 212
oh4-tail-tail 210 211 222
mhead2-amide-tail 211 212 213
amide-tail-oh4 212 211 222
amide-mhead2-tail 212 213 214
amide-mhead2-oh1 212 213 219
amide-mhead2-oh2 212 213 220
mhead2-tail-tail 213 214 215
mhead2-tail-oh3-a 213 214 221
mhead2-tail-oh3-b 213 214 221
oh1-mhead2-tail 214 213 219
oh2-mhead2-tail 214 213 220
tail-tail-tail 214 215 216
oh3-tail-tail 215 214 221
tail-tail-tail 215 216 217
tail-tail-tail 216 217 218
oh1-mhead2-oh2 219 213 220
tail-tail-ter2 223 224 225
tail-tail-tail 224 225 226
tail-tail-tail 225 226 227
tail-tail-tail 226 227 228
tail-tail-tail 227 228 229
tail-tail-tail 228 229 230
amide-tail-tail 229 230 231
oh4-tail-tail 229 230 241
mhead2-amide-tail 230 231 232
amide-tail-oh4 231 230 241
amide-mhead2-tail 231 232 233
amide-mhead2-oh1 231 232 238
amide-mhead2-oh2 231 232 239
mhead2-tail-tail 232 233 234
mhead2-tail-oh3-a 232 233 240
mhead2-tail-oh3-b 232 233 240
oh1-mhead2-tail 233 232 238
oh2-mhead2-tail 233 232 239
tail-tail-tail 233 234 235
oh3-tail-tail 234 233 240
tail-tail-tail 234 235 236
tail-tail-tail 235 236 237
oh1-mhead2-oh2 238 232 239
tail-tail-ter2 242 243 244
tail-tail-tail 243 244 245
tail-tail-tail 244 245 246
tail-tail-tail 245 246 247
tail-tail-tail 246 247 248
tail-tail-tail 247 248 249
amide-tail-tail 248 249 250
oh4-tail-tail 248 249 260
mhead2-amide-tail 249 250 251
amide-tail-oh4 250 249 260
amide-mhead2-tail 250 251 252
amide-mhead2-oh1 250 251 257
amide-mhead2-oh2 250 251 258
mhead2-tail-tail 251 252 253
mhead2-tail-oh3-a 251 252 259
mhead2-tail-oh3-b 251 252 259
oh1-mhead2-tail 252 251 257
oh2-mhead2-tail 252 251 258
tail-tail-tail 252 253 254
oh3-tail-tail 253 252 259
tail-tail-tail 253 254 255
tail-tail-tail 254 255 256
oh1-mhead2-oh2 257 251 258
tail-tail-ter2 261 262 263
tail-tail-tail 262 263 264
tail-tail-tail 263 264 265
tail-tail-tail 264 265 266
tail-tail-tail 265 266 267
tail-tail-tail 266 267 268
amide-tail-tail 267 268 269
oh4-tail-tail 267 268 279
mhead2-amide-tail 268 269 270
amide-tail-oh4 269 268 279
amide-mhead2-tail 269 270 271
amide-mhead2-oh1 269 270 276
amide-mhead2-oh2 269 270 277
mhead2-tail-tail 270 271 272
mhead2-tail-oh3-a 270 271 278
mhead2-tail-oh3-b 270 271 278
oh1-mhead2-tail 271 270 276
oh2-mhead2-tail 271 270 277
tail-tail-tail 271 272 273
oh3-tail-tail 272 271 278
tail-tail-tail 272 273 274
tail-tail-tail 273 274 275
oh1-mhead2-oh2 276 270 277
tail-tail-ter2 280 281 282
tail-tail-tail 281 282 283
tail-tail-tail 282 283 284
tail-tail-tail 283 284 285
tail-tail-tail 284 285 286
tail-tail-tail 285 286 287
amide-tail-tail 286 287 288
oh4-tail-tail 286 287 298
mhead2-amide-tail 287 288 289
amide-tail-oh4 288 287 298
amide-mhead2-tail 288 289 290
amide-mhead2-oh1 288 289 295
amide-mhead2-oh2 288 289 296
mhead2-tail-tail 289 290 291
mhead2-tail-oh3-a 289 290 297
mhead2-tail-oh3-b 289 290 297
oh1-mhead2-tail 290 289 295
oh2-mhead2-tail 290 289 296
tail-tail-tail 290 291 292
oh3-tail-tail 291 290 297
tail-tail-tail 291 292 293
tail-tail-tail 292 293 294
oh1-mhead2-oh2 295 289 296
tail-tail-ter2 299 300 301
tail-tail-tail 300 301 302
tail-tail-tail 301 302 303
tail-tail-tail 302 303 304
tail-tail-tail 303 304 305
tail-tail-tail 304 305 306
amide-tail-tail 305 306 307
oh4-tail-tail 305 306 317
mhead2-amide-tail 306 307 308
amide-tail-oh4 307 306 317
amide-mhead2-tail 307 308 309
amide-mhead2-oh1 307 308 314
amide-mhead2-oh2 307 308 315
mhead2-tail-tail 308 309 310
mhead2-tail-oh3-a 308 309 316
mhead2-tail-oh3-b 308 309 316
oh1-mhead2-tail 309 308 314
oh2-mhead2-tail 309 308 315
tail-tail-tail 309 310 311
oh3-tail-tail 310 309 316
tail-tail-tail 310 311 312
tail-tail-tail 311 312 313
oh1-mhead2-oh2 314 308 315
chead-ring1-ring2 318 319 320
chead-ring1-ring3 318 319 321
chead-ring1-ring4 318 319 322
chead-ring2-ring1 318 320 319
chead-ring2-ring3 318 320 321
chead-ring2-chme 318 320 325
ring1-chead-ring2 319 318 320
ring1-ring2-ring3 319 320 321
chme-ring2-ring1 319 320 325
ring1-ring3-ring2 319 321 320
ring1-ring3-ring4 319 321 322
chme-ring3-ring1 319 321 326
ring1-ring4-ring3 319 322 321
ctail-ring4-ring1 319 322 323
ring2-ring1-ring3 320 319 321
ring2-ring1-ring4 320 319 322
ring2-ring3-ring4 320 321 322
chme-ring3-ring2 320 321 326
ring3-ring1-ring4 321 319 322
chme-ring2-ring3 321 320 325
ctail-ring4-ring3 321 322 323
chme-ring3-ring4 322 321 326
cterm-ctail-ring4 322 323 324
chead-ring1-ring2 327 328 329
chead-ring1-ring3 327 328 330
chead-ring1-ring4 327 328 331
chead-ring2-ring1 327 329 328
chead-ring2-ring3 327 329 330
chead-ring2-chme 327 329 334
ring1-chead-ring2 328 327 329
ring1-ring2-ring3 328 329 330
chme-ring2-ring1 328 329 334
ring1-ring3-ring2 328 330 329
ring1-ring3-ring4 328 330 331
chme-ring3-ring1 328 330 335
ring1-ring4-ring3 328 331 330
ctail-ring4-ring1 328 331 332
ring2-ring1-ring3 329 328 330
ring2-ring1-ring4 329 328 331
ring2-ring3-ring4 329 330 331
chme-ring3-ring2 329 330 335
ring3-ring1-ring4 330 328 331
chme-ring2-ring3 330 329 334
ctail-ring4-ring3 330 331 332
chme-ring3-ring4 331 330 335
cterm-ctail-ring4 331 332 333
chead-ring1-ring2 336 337 338
chead-ring1-ring3 336 337 339
chead-ring1-ring4 336 337 340
chead-ring2-ring1 336 338 337
chead-ring2-ring3 336 338 339
chead-ring2-chme 336 338 343
ring1-chead-ring2 337 336 338
ring1-ring2-ring3 337 338 339
chme-ring2-ring1 337 338 343
ring1-ring3-ring2 337 339 338
ring1-ring3-ring4 337 339 340
chme-ring3-ring1 337 339 344
ring1-ring4-ring3 337 340 339
ctail-ring4-ring1 337 340 341
ring2-ring1-ring3 338 337 339
ring2-ring1-ring4 338 337 340
ring2-ring3-ring4 338 339 340
chme-ring3-ring2 338 339 344
ring3-ring1-ring4 339 337 340
chme-ring2-ring3 339 338 343
ctail-ring4-ring3 339 340 341
chme-ring3-ring4 340 339 344
cterm-ctail-ring4 340 341 342
chead-ring1-ring2 345 346 347
chead-ring1-ring3 345 346 348
chead-ring1-ring4 345 346 349
chead-ring2-ring1 345 347 346
chead-ring2-ring3 345 347 348
chead-ring2-chme 345 347 352
ring1-chead-ring2 346 345 347
ring1-ring2-ring3 346 347 348
chme-ring2-ring1 346 347 352
ring1-ring3-ring2 346 348 347
ring1-ring3-ring4 346 348 349
chme-ring3-ring1 346 348 353
ring1-ring4-ring3 346 349 348
ctail-ring4-ring1 346 349 350
ring2-ring1-ring3 347 346 348
ring2-ring1-ring4 347 346 349
ring2-ring3-ring4 347 348 349
chme-ring3-ring2 347 348 353
ring3-ring1-ring4 348 346 349
chme-ring2-ring3 348 347 352
ctail-ring4-ring3 348 349 350
chme-ring3-ring4 349 348 353
cterm-ctail-ring4 349 350 351
chead-ring1-ring2 354 355 356
chead-ring1-ring3 354 355 357
chead-ring1-ring4 354 355 358
chead-ring2-ring1 354 356 355
chead-ring2-ring3 354 356 357
chead-ring2-chme 354 356 361
ring1-chead-ring2 355 354 356
ring1-ring2-ring3 355 356 357
chme-ring2-ring1 355 356 361
ring1-ring3-ring2 355 357 356
ring1-ring3-ring4 355 357 358
chme-ring3-ring1 355 357 362
ring1-ring4-ring3 355 358 357
ctail-ring4-ring1 355 358 359
ring2-ring1-ring3 356 355 357
ring2-ring1-ring4 356 355 358
ring2-ring3-ring4 356 357 358
chme-ring3-ring2 356 357 362
ring3-ring1-ring4 357 355 358
chme-ring2-ring3 357 356 361
ctail-ring4-ring3 357 358 359
chme-ring3-ring4 358 357 362
cterm-ctail-ring4 358 359 360
chead-ring1-ring2 363 364 365
chead-ring1-ring3 363 364 366
chead-ring1-ring4 363 364 367
chead-ring2-ring1 363 365 364
chead-ring2-ring3 363 365 366
chead-ring2-chme 363 365 370
ring1-chead-ring2 364 363 365
ring1-ring2-ring3 364 365 366
chme-ring2-ring1 364 365 370
ring1-ring3-ring2 364 366 365
ring1-ring3-ring4 364 366 367
chme-ring3-ring1 364 366 371
ring1-ring4-ring3 364 367 366
ctail-ring4-ring1 364 367 368
ring2-ring1-ring3 365 364 366
ring2-ring1-ring4 365 364 367
ring2-ring3-ring4 365 366 367
chme-ring3-ring2 365 366 371
ring3-ring1-ring4 366 364 367
chme-ring2-ring3 366 365 370
ctail-ring4-ring3 366 367 368
chme-ring3-ring4 367 366 371
cterm-ctail-ring4 367 368 369
chead-ring1-ring2 372 373 374
chead-ring1-ring3 372 373 375
chead-ring1-ring4 372 373 376
chead-ring2-ring1 372 374 373
chead-ring2-ring3 372 374 375
chead-ring2-chme 372 374 379
ring1-chead-ring2 373 372 374
ring1-ring2-ring3 373 374 375
chme-ring2-ring1 373 374 379
ring1-ring3-ring2 373 375 374
ring1-ring3-ring4 373 375 376
chme-ring3-ring1 373 375 380
ring1-ring4-ring3 373 376 375
ctail-ring4-ring1 373 376 377
ring2-ring1-ring3 374 373 375
ring2-ring1-ring4 374 373 376
ring2-ring3-ring4 374 375 376
chme-ring3-ring2 374 375 380
ring3-ring1-ring4 375 373 376
chme-ring2-ring3 375 374 379
ctail-ring4-ring3 375 376 377
chme-ring3-ring4 376 375 380
cterm-ctail-ring4 376 377 378
chead-ring1-ring2 381 382 383
chead-ring1-ring3 381 382 384
chead-ring1-ring4 381 382 385
chead-ring2-ring1 381 383 382
chead-ring2-ring3 381 383 384
chead-ring2-chme 381 383 388
ring1-chead-ring2 382 381 383
ring1-ring2-ring3 382 383 384
chme-ring2-ring1 382 383 388
ring1-ring3-ring2 382 384 383
ring1-ring3-ring4 382 384 385
chme-ring3-ring1 382 384 389
ring1-ring4-ring3 382 385 384
ctail-ring4-ring1 382 385 386
ring2-ring1-ring3 383 382 384
ring2-ring1-ring4 383 382 385
ring2-ring3-ring4 383 384 385
chme-ring3-ring2 383 384 389
ring3-ring1-ring4 384 382 385
chme-ring2-ring3 384 383 388
ctail-ring4-ring3 384 385 386
chme-ring3-ring4 385 384 389
cterm-ctail-ring4 385 386 387
tail-tail-ter2 390 391 392
tail-tail-tail 391 392 393
tail-tail-tail 392 393 394
tail-tail-tail 393 394 395
tail-tail-tail 394 395 396
tail-tail-tail 395 396 397
head-tail-tail 396 397 398
tail-tail-ter2 399 400 401
tail-tail-tail 400 401 402
tail-tail-tail 401 402 403
tail-tail-tail 402 403 404
tail-tail-tail 403 404 405
tail-tail-tail 404 405 406
head-tail-tail 405 406 407
tail-tail-ter2 408 409 410
tail-tail-tail 409 410 411
tail-tail-tail 410 411 412
tail-tail-tail 411 412 413
tail-tail-tail 412 413 414
tail-tail-tail 413 414 415
head-tail-tail 414 415 416
tail-tail-ter2 417 418 419
tail-tail-tail 418 419 420
tail-tail-tail 419 420 421
tail-tail-tail 420 421 422
tail-tail-tail 421 422 423
tail-tail-tail 422 423 424
head-tail-tail 423 424 425
tail-tail-ter2 426 427 428
tail-tail-tail 427 428 429
tail-tail-tail 428 429 430
tail-tail-tail 429 430 431
tail-tail-tail 430 431 432
tail-tail-tail 431 432 433
head-tail-tail 432 433 434
tail-tail-ter2 435 436 437
tail-tail-tail 436 437 438
tail-tail-tail 437 438 439
tail-tail-tail 438 439 440
tail-tail-tail 439 440 441
tail-tail-tail 440 441 442
head-tail-tail 441 442 443
tail-tail-ter2 444 445 446
tail-tail-tail 445 446 447
tail-tail-tail 446 447 448
tail-tail-tail 447 448 449
tail-tail-tail 448 449 450
tail-tail-tail 449 450 451
head-tail-tail 450 451 452
tail-tail-ter2 453 454 455
tail-tail-tail 454 455 456
tail-tail-tail 455 456 457
tail-tail-tail 456 457 458
tail-tail-tail 457 458 459
tail-tail-tail 458 459 460
head-tail-tail 459 460 461
tail-tail-ter2 462 463 464
tail-tail-tail 463 464 465
tail-tail-tail 464 465 466
tail-tail-tail 465 466 467
tail-tail-tail 466 467 468
tail-tail-tail 467 468 469
head-tail-tail 468 469 470
tail-tail-ter2 471 472 473
tail-tail-tail 472 473 474
tail-tail-tail 473 474 475
tail-tail-tail 474 475 476
tail-tail-tail 475 476 477
tail-tail-tail 476 477 478
head-tail-tail 477 478 479
tail-tail-ter2 480 481 482
tail-tail-tail 481 482 483
tail-tail-tail 482 483 484
tail-tail-tail 483 484 485
tail-tail-tail 484 485 486
tail-tail-tail 485 486 487
head-tail-tail 486 487 488
tail-tail-ter2 489 490 491
tail-tail-tail 490 491 492
tail-tail-tail 491 492 493
tail-tail-tail 492 493 494
tail-tail-tail 493 494 495
tail-tail-tail 494 495 496
head-tail-tail 495 496 497
tail-tail-ter2 498 499 500
tail-tail-tail 499 500 501
tail-tail-tail 500 501 502
tail-tail-tail 501 502 503
tail-tail-tail 502 503 504
tail-tail-tail 503 504 505
head-tail-tail 504 505 506
tail-tail-ter2 507 508 509
tail-tail-tail 508 509 510
tail-tail-tail 509 510 511
tail-tail-tail 510 511 512
tail-tail-tail 511 512 513
tail-tail-tail 512 513 514
head-tail-tail 513 514 515
tail-tail-ter2 516 517 518
tail-tail-tail 517 518 519
tail-tail-tail 518 519 520
tail-tail-tail 519 520 521
tail-tail-tail 520 521 522
tail-tail-tail 521 522 523
head-tail-tail 522 523 524
tail-tail-ter2 525 526 527
tail-tail-tail 526 527 528
tail-tail-tail 527 528 529
tail-tail-tail 528 529 530
tail-tail-tail 529 530 531
tail-tail-tail 530 531 532
head-tail-tail 531 532 533
tail-tail-ter2 534 535 536
tail-tail-tail 535 536 537
tail-tail-tail 536 537 538
tail-tail-tail 537 538 539
tail-tail-tail 538 539 540
tail-tail-tail 539 540 541
head-tail-tail 540 541 542
tail-tail-ter2 543 544 545
tail-tail-tail 544 545 546
tail-tail-tail 545 546 547
tail-tail-tail 546 547 548
tail-tail-tail 547 548 549
tail-tail-tail 548 549 550
head-tail-tail 549 550 551
tail-tail-ter2 552 553 554
tail-tail-tail 553 554 555
tail-tail-tail 554 555 556
tail-tail-tail 555 556 557
tail-tail-tail 556 557 558
tail-tail-tail 557 558 559
head-tail-tail 558 559 560
tail-tail-ter2 561 562 563
tail-tail-tail 562 563 564
tail-tail-tail 563 564 565
tail-tail-tail 564 565 566
tail-tail-tail 565 566 567
tail-tail-tail 566 567 568
head-tail-tail 567 568 569
tail-tail-ter2 570 571 572
tail-tail-tail 571 572 573
tail-tail-tail 572 573 574
tail-tail-tail 573 574 575
tail-tail-tail 574 575 576
tail-tail-tail 575 576 577
head-tail-tail 576 577 578
tail-tail-ter2 579 580 581
tail-tail-tail 580 581 582
tail-tail-tail 581 582 583
tail-tail-tail 582 583 584
tail-tail-tail 583 584 585
tail-tail-tail 584 585 586
head-tail-tail 585 586 587
tail-tail-ter2 588 589 590
tail-tail-tail 589 590 591
tail-tail-tail 590 591 592
tail-tail-tail 591 592 593
tail-tail-tail 592 593 594
tail-tail-tail 593 594 595
head-tail-tail 594 595 596
tail-tail-ter2 597 598 599
tail-tail-tail 598 599 600
tail-tail-tail 599 600 601
tail-tail-tail 600 601 602
tail-tail-tail 601 602 603
tail-tail-tail 602 603 604
head-tail-tail 603 604 605
tail-tail-ter2 606 607 608
tail-tail-tail 607 608 609
tail-tail-tail 608 609 610
tail-tail-tail 609 610 611
tail-tail-tail 610 611 612
tail-tail-tail 611 612 613
head-tail-tail 612 613 614
</angle>
<box lx="3.764420" ly="5.012313" lz="37.132381" />
<position num="747">
0.577882 -0.847098 -9.115391
0.911602 -1.125339 -9.462767
1.272290 -1.043103 -9.986914
1.732646 -0.899028 -10.398878
-1.786338 -0.825833 -10.949289
-1.742827 -0.629945 -11.561951
-1.499017 -0.426580 -12.152893
-1.586774 -0.222173 -12.792967
-1.455647 -0.328668 -13.283581
-1.153467 0.052537 -13.424015
-1.028397 0.322880 -12.904640
-1.083477 0.378593 -12.250940
-1.135824 0.190312 -11.624701
-1.225097 -0.200270 -11.104877
-1.155862 -0.676165 -10.638241
-0.981876 -0.002265 -13.759388
-1.250909 0.372718 -13.453596
-0.817084 0.466418 -13.221308
0.727058 1.453957 -8.783686
0.986984 1.433246 -9.274103
1.039207 1.325499 -9.936953
0.903303 1.141327 -10.539640
0.951933 0.900244 -11.152510
0.792049 0.794078 -11.769693
0.849863 0.625516 -12.377672
0.882444 0.705847 -12.987295
0.930326 1.078978 -13.335461
1.328321 1.056474 -13.578999
1.213532 0.908517 -14.127903
1.219396 1.158360 -14.714264
1.353817 1.183649 -15.376968
1.390551 1.001932 -16.006239
1.305770 0.965317 -16.631678
1.575349 1.357765 -13.413635
0.997139 1.175145 -13.686876
1.002616 0.702808 -13.868155
0.151988 -1.309789 -9.729246
0.246921 -1.158686 -10.232622
0.713278 -1.283232 -10.653107
1.249944 -1.247780 -11.037844
1.645062 -1.360179 -11.552271
1.845810 -1.269673 -12.142803
1.850412 -1.065519 -12.729572
1.707790 -0.658502 -13.189651
1.758819 -0.517799 -13.661842
1.713795 -0.042863 -13.582617
1.223058 0.095442 -13.290718
1.066555 -0.151490 -12.723900
1.191463 -0.513957 -12.239252
1.308311 -0.581868 -11.571117
1.259281 -0.499165 -10.962767
-1.735517 -0.006748 -13.836905
1.757790 0.002557 -13.255848
1.390694 0.390708 -13.482426
1.313408 -2.330423 -9.885916
1.402720 -2.178914 -9.384327
1.270113 -2.316283 -8.764626
1.232366 2.293808 -8.238104
1.339467 2.203428 -7.659760
1.312201 2.325641 -7.071587
1.298479 2.251509 -6.411369
1.347594 2.330562 -5.778498
1.296966 -2.492832 -5.325453
0.871483 2.378210 -5.120625
0.540210 -2.345620 -5.575600
0.454966 -2.215474 -6.206236
0.603254 -2.239521 -6.837921
0.494373 -2.206987 -7.449888
0.542306 -2.091014 -8.042225
0.823784 2.185595 -4.729488
0.782806 -2.315776 -5.022263
0.327537 -2.431815 -5.257412
0.281901 1.918638 9.823435
0.284541 2.000072 10.386297
0.271057 1.933719 10.985770
0.309731 1.611875 11.523742
0.282943 1.521932 12.192116
0.276212 1.687379 12.760997
0.134824 1.611663 13.358174
0.142485 1.635521 14.031706
0.404452 1.484472 14.431374
0.277237 1.820285 14.750842
0.604113 1.889420 15.226871
0.445811 1.806850 15.866713
0.600406 1.808619 16.463438
0.598571 1.635319 17.102415
0.701926 1.677726 17.741453
0.139169 2.129859 14.531915
0.109894 1.719216 15.040118
0.631559 2.170130 14.939960
-1.565999 0.189897 9.907073
-1.529602 0.264475 10.482844
-1.332279 0.348349 11.161277
-1.220360 0.128941 11.744378
-1.299509 -0.000709 12.415427
-1.281340 -0.209000 13.007004
-1.189868 -0.167415 13.669634
-1.313473 -0.025873 14.330159
-1.256437 -0.202776 14.792672
-0.922576 -0.539985 14.747375
-0.603273 -0.611655 14.246844
-0.439904 -0.631774 13.639714
-0.430423 -0.395017 13.030354
-0.587748 -0.451382 12.393271
-0.815240 -0.727980 11.877785
-0.947145 -0.754445 15.101251
-0.671367 -0.314051 14.708563
-0.394584 -0.704057 14.604896
-1.240856 0.285670 14.586497
1.511839 1.906684 -9.880556
1.624844 1.966675 -9.335371
1.552261 1.804386 -8.717527
1.862051 1.741081 -8.093157
-1.827404 1.710098 -7.449467
1.833599 1.744505 -6.819445
-1.813923 1.833459 -6.159950
-1.512309 1.679466 -5.583153
-1.708983 1.641104 -5.118286
1.564804 1.669985 -5.124146
1.245980 1.590457 -5.620987
1.285822 1.533912 -6.237774
1.157892 1.395983 -6.879738
1.160326 1.404946 -7.518324
0.930215 1.343337 -8.074694
1.474451 1.936147 -4.854568
1.473214 1.349316 -5.142836
1.021909 1.621281 -5.283819
-1.318858 1.389549 -5.370773
1.624820 0.845762 -9.260046
1.840043 1.100624 -9.699598
-1.826022 1.269286 -10.316811
1.753973 1.319800 -10.906370
1.457612 1.282984 -11.460600
1.347199 1.265908 -12.113455
1.011114 1.496159 -12.662952
0.838796 1.674792 -13.265602
0.947204 2.030263 -13.609228
1.296916 1.831288 -13.886732
1.077484 1.759063 -14.400501
1.004447 1.853426 -15.076654
1.028194 1.687309 -15.776291
1.139220 1.754806 -16.417810
1.058749 1.828672 -17.123354
1.664435 1.917857 -13.731504
1.334114 2.108578 -14.103697
1.116189 1.425678 -14.196184
0.636230 1.567281 -13.612608
1.040013 2.250412 10.590325
1.119353 2.123676 10.050886
1.357168 1.909105 9.463485
1.405441 1.905252 8.792477
1.376665 2.124639 8.208355
1.353730 2.179723 7.578842
1.412101 2.065725 6.923161
1.563861 2.181093 6.310381
1.581670 -2.416461 6.006009
-1.703087 -2.392918 6.021790
-1.511911 2.347779 6.507605
-1.616657 2.255284 7.122408
-1.668673 2.357207 7.765257
-1.569672 2.229426 8.411940
-1.646053 2.270232 9.074392
-1.777043 -2.213031 5.732475
-1.680041 2.262073 5.981739
-1.211476 2.398361 6.218584
1.567071 2.073630 5.905464
0.971719 1.478662 10.745000
0.971613 1.321476 10.213758
0.984192 1.101041 9.584053
1.231547 1.004582 8.957757
1.266301 1.014127 8.308247
1.273310 1.260459 7.673554
1.158702 1.240343 7.061091
1.191627 1.052255 6.387736
1.428425 1.045996 5.966848
1.672304 1.463935 5.985149
-1.813826 1.588006 6.469818
-1.756843 1.482473 7.076597
-1.822302 1.631188 7.710423
-1.833695 1.558913 8.287394
-1.643255 1.454803 8.877700
1.442668 1.621277 5.748312
-1.765282 1.352922 5.971356
-1.688123 1.775339 6.152268
0.929388 1.067421 6.088470
-1.007338 -2.090915 -9.806606
-0.863025 -2.075753 -9.217918
-1.023321 -2.037081 -8.556810
-1.079740 -1.781589 -7.969196
-1.084484 -1.715514 -7.304131
-1.338859 -1.756173 -6.719208
-1.298367 -1.763256 -6.069584
-1.346139 -1.936148 -5.448244
-1.166483 -2.193678 -5.053661
-1.516497 2.472665 -5.009567
-1.699746 2.400693 -5.594666
-1.665271 -2.486077 -6.250027
-1.576173 -2.427926 -6.868923
-1.689267 2.494425 -7.448513
-1.828138 -2.403244 -8.098799
-1.532776 2.194261 -4.697510
-1.800161 -2.378268 -5.088009
1.879668 2.165977 -5.336260
-1.367510 -1.705147 -5.109676
0.008189 -1.648294 18.421644
0.048415 -1.701564 -18.179655
0.339751 -1.603142 -17.629814
0.692293 -1.659558 -17.072704
0.856844 -1.808536 -16.473030
1.015406 -1.708616 -15.837090
1.015309 -1.678495 -15.198269
1.023621 -1.815142 -14.569565
0.762201 -1.815692 -14.119522
0.553303 -2.248807 -14.056137
0.713675 -2.442563 -14.610987
0.671340 -2.427086 -15.288504
0.664622 2.395756 -15.898832
0.561335 2.380194 -16.515806
0.413298 -2.444857 -17.115759
0.749345 -2.471034 -13.849062
0.287880 -2.359138 -14.236307
0.920419 2.435109 -14.320173
1.130371 -1.475706 -14.348162
1.192279 -1.388655 -8.806494
1.189135 -1.360179 -9.385914
1.262126 -1.395861 -10.013838
1.285204 -1.718870 -10.559721
1.266894 -2.209851 -11.052011
1.412620 -2.397517 -11.611124
1.690251 -2.373101 -12.216978
1.728688 -2.393752 -12.842155
1.753471 -2.179648 -13.289831
1.351272 -2.307113 -13.533079
1.119257 2.406878 -13.072357
1.200865 2.186729 -12.428556
1.104927 1.952875 -11.886930
1.204858 1.989739 -11.210169
1.513925 2.064293 -10.642515
1.136340 -2.100203 -13.813240
1.453156 2.371967 -13.545568
0.853781 2.480280 -13.376036
1.782701 2.337407 -13.158356
1.293369 -0.374934 -10.235933
1.431332 -0.431101 -9.718189
1.425797 -0.606071 -9.054836
1.319052 -0.537899 -8.409523
1.454963 -0.565356 -7.748079
1.370875 -0.577775 -7.100403
1.363496 -0.452382 -6.431599
1.413445 -0.506539 -5.814787
1.004660 -0.513626 -5.559273
0.835916 -0.080249 -5.703672
0.832849 -0.040803 -6.249292
0.739538 -0.127408 -6.870081
0.872489 -0.111769 -7.471333
0.825859 -0.261127 -8.134592
0.641899 -0.175869 -8.687006
0.892123 0.261930 -5.504684
0.524981 -0.191056 -5.823744
0.954983 0.259868 -6.041759
1.468745 -0.284764 -5.462597
-1.678369 1.891234 18.520117
-1.723729 1.703786 -18.129881
1.858601 1.634816 -17.512846
-1.839537 1.544059 -16.832457
1.822618 1.580681 -16.224173
1.838457 1.802650 -15.636818
1.815227 1.768029 -15.005323
1.786515 1.490250 -14.451323
-1.846127 1.457009 -13.963894
-1.433602 1.282299 -13.961279
-1.046201 1.466056 -14.387312
-0.943811 1.638741 -15.047537
-1.072431 1.575560 -15.733664
-1.132231 1.708645 -16.331728
-0.910760 1.871219 -16.942072
-1.440575 1.089969 -13.608494
-1.449045 1.067213 -14.245094
-0.856499 1.420991 -14.012470
1.812353 1.127902 -14.349882
-1.871822 2.468524 9.930277
1.830201 2.355707 10.508939
1.840157 2.324317 11.153819
-1.768734 2.399842 11.784626
-1.864275 2.253891 12.388871
1.755554 2.166275 13.031665
1.833030 2.218341 13.681787
1.860218 2.025889 14.336251
1.591182 1.943425 14.762256
1.159483 1.802765 14.569974
1.022501 1.911061 13.983427
1.153202 1.899433 13.325621
1.158617 1.728450 12.695374
1.073208 1.871121 12.034499
1.243607 1.923363 11.395574
0.986184 1.610866 14.892393
1.204686 1.528226 14.352728
0.813076 2.148977 14.236583
-1.779500 1.646907 14.507799
1.433254 0.554691 -10.380966
1.337557 0.431329 -9.826527
1.373084 0.159014 -9.222155
1.524949 0.170389 -8.587784
1.549901 0.079774 -7.945017
1.572553 0.204658 -7.302954
1.707520 0.081083 -6.692108
1.687693 0.210548 -6.050983
-1.845148 0.355711 -5.632250
1.649039 0.704860 -5.434273
1.624301 0.931077 -5.947672
1.809577 0.971664 -6.600395
1.812151 0.898415 -7.240370
1.680969 0.855770 -7.865299
1.479785 0.967925 -8.468241
1.476110 0.612460 -5.090054
-1.870738 0.964803 -5.457752
1.288257 0.929419 -5.740286
1.413271 0.419205 -5.785038
0.657251 0.246657 -14.477644
0.484459 -0.045948 -15.083401
0.737398 0.431224 -14.870623
0.655246 0.274612 -15.558666
0.291382 -0.029783 -15.793894
0.351009 0.218646 -16.341007
0.678708 0.255110 -16.981871
0.894463 0.107643 -15.014736
0.733554 -0.098421 -15.797922
0.449259 0.603947 6.347841
0.148419 0.544896 6.984719
0.601200 0.814775 6.701882
0.421001 0.893959 7.380919
0.182264 0.562152 7.727127
0.400288 0.845179 8.233570
0.541263 0.652893 8.874166
0.254552 0.967096 6.788309
0.081911 0.966770 7.616244
-1.695351 0.608445 6.280921
1.754768 0.627706 6.912956
-1.488642 0.701536 6.646962
-1.603317 0.745606 7.339795
1.763396 0.593653 7.658788
-1.703756 0.721421 8.192865
-1.759541 0.661859 8.874109
-1.745528 0.944502 6.782886
-1.866267 0.991541 7.570934
1.725834 0.474624 14.278361
-1.870553 0.294002 13.619905
1.506085 0.612120 13.933803
1.555756 0.589289 13.217533
1.707113 0.180219 12.898555
1.588478 0.469605 12.352107
1.759727 0.423631 11.654593
1.828320 0.706437 13.767755
1.873168 0.629274 12.925212
-1.869570 0.723167 -13.238253
1.590274 0.417400 -12.670385
-1.740422 0.795526 -12.827360
1.873646 0.585625 -12.172857
1.596321 0.178201 -11.966114
1.733811 0.327087 -11.359451
-1.663810 0.873039 -11.335464
1.667225 0.867488 -12.703779
1.513815 0.625703 -11.924911
1.627839 -2.307599 -14.304922
1.419478 -2.244136 -14.981920
1.807356 2.479711 -14.633427
1.757828 2.436426 -15.347961
1.552878 -2.249492 -15.724768
1.695400 2.428569 -16.253860
1.348426 -2.429653 -16.798706
1.447322 2.354986 -14.808418
1.431479 2.357077 -15.636332
0.703544 2.465985 6.396482
0.330577 2.456892 7.010729
0.875157 -2.452313 6.790133
0.698037 -2.468059 7.475256
0.301943 2.314602 7.739451
0.590639 2.346370 8.259418
0.754416 -2.356554 8.836561
0.592833 -2.197188 6.924016
0.385807 -2.279792 7.732328
-1.740155 1.679182 -13.280542
-1.392782 1.790923 -12.669025
1.827022 1.718435 -12.889112
-1.782767 1.793569 -12.210148
-1.347071 1.915302 -11.935785
-1.704261 2.055712 -11.439644
-1.308059 1.657168 -11.004997
-1.710073 1.466982 -12.705877
-1.553479 1.511607 -11.956783
0.799713 0.396657 9.767739
0.890561 0.468211 10.306405
0.812475 0.492153 10.989591
0.933788 0.358066 11.635862
0.798720 0.263829 12.262569
0.877614 0.298957 12.946937
0.661024 0.404278 13.532001
0.599760 0.379706 14.160503
0.312088 0.279712 14.587594
1.132652 1.429392 -17.716185
1.113968 1.451652 -18.268440
1.263060 1.697475 18.368761
1.503976 1.797449 17.793598
1.573224 2.102047 17.240108
1.295117 2.359176 16.679941
1.274132 2.395728 16.009771
1.116451 2.298468 15.357533
1.203267 2.478986 14.865830
1.387900 -0.151669 -17.604534
1.674045 -0.108244 -18.129303
1.801258 0.311305 18.565041
1.702357 0.540807 18.054813
1.439628 0.672830 17.409695
1.349514 0.721919 16.752996
1.457966 0.717675 16.138206
1.445214 0.733484 15.504470
1.602071 0.837144 14.947217
0.866006 0.618845 -17.543188
0.896956 0.629091 -18.095860
0.948772 0.867630 18.494493
1.124225 1.061978 17.972229
1.148457 1.281427 17.347643
1.366841 1.515326 16.793365
1.357556 1.672953 16.153784
1.389737 1.608689 15.490260
1.430934 1.344772 14.972668
-0.115417 0.953148 -8.902966
-0.394584 0.849396 -9.406179
-0.311290 0.998200 -10.039179
-0.051308 0.876744 -10.597429
-0.064828 0.722282 -11.239140
0.057069 0.693866 -11.891684
0.141984 0.463304 -12.467112
0.201852 0.472718 -13.134308
-0.221047 0.426020 -13.545652
-1.638279 2.312976 -17.156981
-1.559421 2.395673 -17.685299
-1.504597 -2.435871 -18.285288
-1.626663 -2.214872 18.241938
-1.833521 -2.261005 17.562943
1.821896 -2.042399 16.943193
1.682844 -2.129322 16.320189
1.708426 -2.062562 15.669521
1.839565 -2.261387 15.159756
-0.847118 1.464801 17.454317
-1.071542 1.464459 17.980453
-1.076831 1.214371 18.565041
-1.312706 1.034198 -18.060213
-1.443189 0.980111 -17.398006
-1.456981 0.831706 -16.721779
-1.513627 0.884186 -16.073933
-1.634665 1.040359 -15.474977
-1.615994 1.073673 -14.935595
1.557266 0.814720 -17.507008
1.581666 0.861836 -18.092663
1.708204 1.115953 18.509411
-1.725435 1.332122 17.940937
-1.651315 1.376205 17.328577
-1.721513 1.113581 16.678894
-1.793162 1.243106 16.043036
-1.632953 1.272147 15.452178
-1.692570 1.241251 14.911142
0.578126 -2.473442 9.559850
0.550602 -2.184833 10.041549
0.522473 -2.213337 10.621610
0.647321 2.489043 11.168530
0.492683 2.334946 11.790629
0.524376 2.309619 12.464727
0.476036 2.495872 13.065626
0.492895 2.384396 13.736168
0.443201 -2.495078 14.258787
0.865152 2.088403 -10.148710
0.763493 2.276585 -9.616907
0.758542 2.173842 -9.000988
0.584997 2.118315 -8.345619
0.516722 1.933784 -7.709723
0.576935 2.008975 -7.041647
0.689517 1.918700 -6.469069
0.648509 1.862067 -5.829678
0.303293 1.899817 -5.411036
0.411628 1.278939 18.363979
0.275473 1.227103 -18.260311
0.409226 1.260017 -17.676153
0.439497 1.191850 -17.036642
0.642332 1.153794 -16.404884
0.567070 1.075802 -15.770807
0.395310 1.186766 -15.120359
0.434085 1.205623 -14.504885
0.490610 0.864609 -14.059010
0.578754 0.460623 -10.357033
0.502197 0.648766 -9.793699
0.644438 0.547738 -9.162254
0.684726 0.628174 -8.513315
0.870975 0.560481 -7.916058
1.057374 0.643341 -7.313332
0.995765 0.652901 -6.682501
0.791873 0.933816 -6.135145
0.710831 0.892965 -5.610868
-0.674595 -2.063708 18.542654
-0.700808 -2.290131 -18.086782
-0.879315 -2.254341 -17.477438
-1.013888 -2.335191 -16.885132
-0.968305 -2.495934 -16.296391
-1.193427 2.355980 -15.723669
-1.247346 2.279677 -15.091833
-1.415024 2.111227 -14.468363
-1.695280 2.151766 -13.991169
-1.488766 0.044396 -17.508963
-1.360812 0.019056 -18.085527
-1.177482 0.276596 18.562004
-1.286924 0.594262 18.015955
-1.134301 0.759659 17.381508
-1.055416 0.700553 16.770025
-0.881844 0.863369 16.168566
-0.972968 0.914622 15.506538
-0.922532 1.062972 14.985836
1.315517 2.362660 -17.812092
1.205851 2.462021 -18.384121
1.249085 2.460763 18.144062
1.055822 -2.500403 17.584047
0.877309 -2.179478 17.049910
0.965878 -1.939697 16.484337
0.919084 -1.831911 15.824103
1.029473 -1.889250 15.243417
1.411078 -1.892563 14.899963
-1.036510 1.848049 -17.727276
-0.890473 2.002371 -18.239279
-0.989344 2.211445 18.320343
-1.100570 2.293454 17.661997
-1.440927 2.231116 17.129736
-1.648633 2.041097 16.532900
-1.811979 2.052046 15.924970
-1.841986 1.982310 15.279346
-1.596389 2.236798 14.926147
1.628750 0.716956 9.902759
1.608240 0.785387 10.417948
1.544320 0.976957 11.045016
1.214079 1.118505 11.582926
1.082483 1.022065 12.187164
0.801692 1.005181 12.772582
0.785959 1.114339 13.391328
0.816416 1.033782 14.068129
1.098600 0.989806 14.541591
-1.331127 1.902785 9.838519
-1.140331 1.970618 10.355096
-1.210376 1.841244 10.977512
-1.135560 1.782634 11.574369
-1.229812 1.571788 12.133147
-1.380428 1.703367 12.763933
-1.290061 1.700249 13.389306
-1.459989 1.600455 14.008057
-1.251566 1.414232 14.481949
-1.468761 2.211015 -8.713108
-1.690699 -2.480501 -9.128788
-1.616493 -2.375372 -9.786552
-1.716084 -2.473696 -10.407583
-1.728806 -2.288670 -10.987410
-1.528265 -2.208972 -11.591860
-1.289666 -2.381845 -12.214144
-1.324893 -2.397620 -12.887012
-1.495166 2.284181 -13.328157
-1.389161 0.538477 -10.682045
-1.162816 0.797275 -10.223419
-1.168405 0.817527 -9.592968
-0.905359 0.666982 -8.954443
-0.683902 0.781089 -8.340254
-0.662498 0.903993 -7.695511
-0.599314 0.665161 -7.055294
-0.618580 0.615918 -6.430866
-0.547541 0.620108 -5.871710
1.844418 1.437838 9.717289
1.828117 1.571312 10.256716
-1.817775 1.574988 10.879315
-1.864163 1.610373 11.511734
1.784099 1.334962 12.126382
1.703182 1.316989 12.797547
1.793283 1.436063 13.391390
1.638649 1.391466 13.997045
1.558329 1.118748 14.453742
0.584134 -1.947401 -8.978903
0.677535 -1.911621 -9.551693
0.578422 -1.940024 -10.147886
0.439855 -2.198654 -10.723070
0.538475 -2.416542 -11.332119
0.489048 -2.411905 -11.954912
0.558079 2.377619 -12.466316
0.366250 2.119077 -12.994637
0.242856 2.267722 -13.509485
-1.407893 1.945488 -10.062635
-1.464597 1.914413 -9.520180
-1.493394 1.444985 -9.011881
-1.381911 1.231512 -8.417522
-1.222255 1.238086 -7.764172
-1.223036 1.113240 -7.090054
-1.324270 1.144124 -6.419428
-1.427033 0.906901 -5.846718
-1.195848 0.804939 -5.359632
0.301773 2.214944 -10.385054
0.078140 2.400789 -9.935829
-0.093465 -2.463867 -9.277220
-0.085428 -2.475079 -8.694969
-0.202693 2.311158 -8.098661
-0.109079 2.264739 -7.482708
-0.137813 2.385581 -6.861271
-0.025502 2.290254 -6.224775
0.020265 2.081259 -5.796955
-1.268188 0.928653 9.733654
-1.224506 1.083518 10.297654
-1.470542 0.980498 10.834302
-1.514775 0.971457 11.446119
-1.375163 0.883993 12.070210
-1.282587 0.883954 12.702071
-1.388508 0.807850 13.365690
-1.294469 0.710564 13.998145
-1.373175 0.839901 14.514605
1.373920 0.877068 -1.058182
-1.635410 0.938774 3.767261
0.985302 0.457293 14.454782
0.162286 0.840096 0.329051
1.850211 1.112829 -0.757698
1.745101 0.464102 4.662503
0.323869 0.491792 2.699441
0.201744 1.832662 -4.509087
0.562103 1.575753 -0.513996
0.762487 0.501855 1.717833
0.716826 0.755763 -0.283028
0.498158 0.558380 5.720657
0.907322 2.309635 1.580292
-1.340676 0.904458 5.809341
0.956792 0.197162 -2.431427
1.534465 0.586929 3.379335
-1.631830 0.269270 2.709798
0.273436 0.819045 -1.064304
0.194806 0.729831 -3.948982
1.147692 1.994557 4.862303
0.227846 0.015544 -1.433857
1.691544 0.571555 -3.702053
1.172947 1.339584 4.218418
1.589637 1.385367 -2.512833
0.071731 0.977191 1.305877
-1.535680 1.975707 5.542451
-1.830137 2.308532 -1.834579
0.766621 0.237128 -3.419392
-1.560916 0.935676 1.354585
1.509158 0.204921 -0.345257
0.074543 1.841755 -3.176327
-1.407667 1.145244 -4.221363
1.144398 0.099733 2.742709
0.035875 1.003605 3.454930
0.554527 1.228874 2.424358
1.062878 2.097428 5.730898
-1.426024 0.883323 -0.011505
0.711451 1.805076 -2.161713
1.516135 0.653726 -2.935226
1.475271 0.834329 0.051167
0.121981 0.329271 -2.157852
0.889201 1.271470 -2.817348
-1.431804 0.191616 4.381251
0.352848 0.047432 -5.021286
1.391602 1.435617 3.313653
0.723843 1.989962 0.788406
0.407798 1.916057 2.812140
1.587619 0.233554 2.022861
-1.819781 0.097012 -1.113705
1.528138 2.050002 0.428282
0.977907 0.699707 -2.021606
1.778037 1.402661 -3.454365
0.780889 1.140753 5.549307
-1.695581 1.542953 4.209457
1.745908 1.041775 1.971357
1.274958 0.355764 5.180492
-1.318929 0.400839 -1.466366
0.982268 1.657315 0.170767
-1.711476 2.186785 4.718415
0.275727 2.479592 5.158339
0.784026 0.689149 3.222957
1.059011 1.551727 1.616267
1.096868 0.584104 -4.288265
0.871971 1.443181 -4.401913
0.484957 2.160086 3.563126
0.777426 0.795157 4.700840
1.093493 0.042114 -1.111866
1.369940 2.106413 3.978401
-1.668945 1.723152 -0.197594
1.083928 1.958835 -2.788994
1.282561 1.695176 -0.545315
1.796823 0.879021 -1.910191
-1.794910 0.238820 5.604251
-1.591981 1.725873 3.355023
-1.539576 1.926133 -4.124001
-1.860145 0.776775 -4.667233
0.329597 1.130143 -2.172714
0.509490 2.416310 -0.658199
0.364499 2.077897 -1.323471
1.028653 2.253582 -1.152176
0.958790 0.388824 0.593793
0.008097 1.489396 1.963136
-1.340910 1.890860 0.597655
-1.486585 1.592761 -1.427258
1.459532 1.735402 -1.648788
-1.450290 0.265742 0.340767
0.085530 0.031322 -4.140659
-1.287822 0.029135 -2.261143
1.468488 0.903247 1.416127
-1.433262 1.176046 -2.822311
1.122586 1.856760 2.377768
1.216122 1.113864 2.638663
0.850250 1.174236 -5.133863
1.563209 1.213773 5.137973
0.286220 0.006965 0.089221
1.602370 1.432844 -4.227409
0.565895 0.615081 -4.779209
0.239745 0.030150 0.961106
0.056682 0.506646 1.975842
1.860449 1.827835 2.069173
0.049112 1.246826 -4.992649
-1.559579 1.156700 5.021068
1.711800 2.275635 -2.568882
-1.609530 0.524813 -2.820953
0.216800 2.371371 1.792713
1.372713 0.203925 -1.877022
1.579105 0.350869 0.806969
-1.493719 0.279568 -4.001183
0.916149 1.158152 -3.582867
0.534739 0.723400 3.981886
1.794577 1.265950 0.661935
1.465937 0.049593 -4.818291
1.458673 2.262734 -3.647606
0.613708 1.494152 3.441782
1.343903 2.389971 3.085562
0.476191 2.421713 0.179536
0.890815 1.099628 0.877289
0.153303 0.321187 -0.573963
1.876429 2.476858 3.727531
-1.288053 2.436503 -2.453445
-1.781937 1.157423 2.825235
-1.669232 1.902869 -3.082047
0.194415 0.793647 -3.048416
0.483486 1.652931 -3.722961
1.659258 1.905252 1.226966
1.840733 2.078004 -0.950527
0.561765 0.153108 -13.555609
0.749554 1.321616 -1.306694
0.459202 1.713831 5.067924
1.271522 0.523830 4.140439
0.488113 1.808135 4.194908
1.154679 2.417860 -4.368492
</position>
<image num="747">
0 0 1
0 0 1
0 0 1
0 0 1
1 0 1
1 0 1
1 0 1
1 0 1
1 0 1
1 0 1
1 0 1
1 0 1
1 0 1
1 0 1
1 0 1
1 0 1
1 0 1
1 0 1
0 0 1
0 0 1
0 0 1
0 0 1
0 0 1
0 0 1
0 0 1
0 0 1
0 0 1
0 0 1
0 0 1
0 0 1
0 0 1
0 0 1
0 0 1
0 0 1
0 0 1
0 0 1
0 0 1
0 0 1
0 0 1
0 0 1
0 0 1
0 0 1
0 0 1
0 0 1
0 0 1
0 0 1
0 0 1
0 0 1
0 0 1
0 0 1
0 0 1
1 0 1
0 0 1
0 0 1
0 1 1
0 1 1
0 1 1
0 0 1
0 0 1
0 0 1
0 0 1
0 0 1
0 1 1
0 0 1
0 1 1
0 1 1
0 1 1
0 1 1
0 1 1
0 0 1
0 1 1
0 1 1
0 0 0
0 0 0
0 0 0
0 0 0
0 0 0
0 0 0
0 0 0
0 0 0
0 0 0
0 0 0
0 0 0
0 0 0
0 0 0
0 0 0
0 0 0
0 0 0
0 0 0
0 0 0
1 0 0
1 0 0
1 0 0
1 0 0
1 0 0
1 0 0
1 0 0
1 0 0
1 0 0
1 0 0
1 0 0
1 0 0
1 0 0
1 0 0
1 0 0
1 0 0
1 0 0
1 0 0
1 0 0
0 0 1
0 0 1
0 0 1
0 0 1
1 0 1
0 0 1
1 0 1
1 0 1
1 0 1
0 0 1
0 0 1
0 0 1
0 0 1
0 0 1
0 0 1
0 0 1
0 0 1
0 0 1
1 0 1
0 0 1
0 0 1
1 0 1
0 0 1
0 0 1
0 0 1
0 0 1
0 0 1
0 0 1
0 0 1
0 0 1
0 0 1
0 0 1
0 0 1
0 0 1
0 0 1
0 0 1
0 0 1
0 0 1
0 0 0
0 0 0
0 0 0
0 0 0
0 0 0
0 0 0
0 0 0
0 0 0
0 1 0
1 1 0
1 0 0
1 0 0
1 0 0
1 0 0
1 0 0
1 1 0
1 0 0
1 0 0
0 0 0
0 0 0
0 0 0
0 0 0
0 0 0
0 0 0
0 0 0
0 0 0
0 0 0
0 0 0
0 0 0
1 0 0
1 0 0
1 0 0
1 0 0
1 0 0
0 0 0
1 0 0
1 0 0
0 0 0
1 1 1
1 1 1
1 1 1
1 1 1
1 1 1
1 1 1
1 1 1
1 1 1
1 1 1
1 0 1
1 0 1
1 1 1
1 1 1
1 0 1
1 1 1
1 0 1
1 1 1
0 0 1
1 1 1
0 1 0
0 1 1
0 1 1
0 1 1
0 1 1
0 1 1
0 1 1
0 1 1
0 1 1
0 1 1
0 1 1
0 1 1
0 0 1
0 0 1
0 1 1
0 1 1
0 1 1
0 0 1
0 1 1
0 1 1
0 1 1
0 1 1
0 1 1
0 1 1
0 1 1
0 1 1
0 1 1
0 1 1
0 1 1
0 0 1
0 0 1
0 0 1
0 0 1
0 0 1
0 1 1
0 0 1
0 0 1
0 0 1
0 0 1
0 0 1
0 0 1
0 0 1
0 0 1
0 0 1
0 0 1
0 0 1
0 0 1
0 0 1
0 0 1
0 0 1
0 0 1
0 0 1
0 0 1
0 0 1
0 0 1
0 0 1
0 0 1
1 0 0
1 0 1
0 0 1
1 0 1
0 0 1
0 0 1
0 0 1
0 0 1
1 0 1
1 0 1
1 0 1
1 0 1
1 0 1
1 0 1
1 0 1
1 0 1
1 0 1
1 0 1
0 0 1
1 0 0
0 0 0
0 0 0
1 0 0
1 0 0
0 0 0
0 0 0
0 0 0
0 0 0
0 0 0
0 0 0
0 0 0
0 0 0
0 0 0
0 0 0
0 0 0
0 0 0
0 0 0
1 0 0
0 0 1
0 0 1
0 0 1
0 0 1
0 0 1
0 0 1
0 0 1
0 0 1
1 0 1
0 0 1
0 0 1
0 0 1
0 0 1
0 0 1
0 0 1
0 0 1
1 0 1
0 0 1
0 0 1
0 0 1
0 0 1
0 0 1
0 0 1
0 0 1
0 0 1
0 0 1
0 0 1
0 0 1
0 0 0
0 0 0
0 0 0
0 0 0
0 0 0
0 0 0
0 0 0
0 0 0
0 0 0
1 0 0
0 0 0
1 0 0
1 0 0
0 0 0
1 0 0
1 0 0
1 0 0
1 0 0
0 0 0
1 0 0
0 0 0
0 0 0
0 0 0
0 0 0
0 0 0
0 0 0
0 0 0
1 0 1
0 0 1
1 0 1
0 0 1
0 0 1
0 0 1
1 0 1
0 0 1
0 0 1
0 1 1
0 1 1
0 0 1
0 0 1
0 1 1
0 0 1
0 1 1
0 0 1
0 0 1
0 0 0
0 0 0
0 1 0
0 1 0
0 0 0
0 0 0
0 1 0
0 1 0
0 1 0
1 0 1
1 0 1
0 0 1
1 0 1
1 0 1
1 0 1
1 0 1
1 0 1
1 0 1
0 0 0
0 0 0
0 0 0
0 0 0
0 0 0
0 0 0
0 0 0
0 0 0
0 0 0
0 0 1
0 0 1
0 0 0
0 0 0
0 0 0
0 0 0
0 0 0
0 0 0
0 0 0
0 0 1
0 0 1
0 0 0
0 0 0
0 0 0
0 0 0
0 0 0
0 0 0
0 0 0
0 0 1
0 0 1
0 0 0
0 0 0
0 0 0
0 0 0
0 0 0
0 0 0
0 0 0
0 0 1
0 0 1
0 0 1
0 0 1
0 0 1
0 0 1
0 0 1
0 0 1
0 0 1
1 0 1
1 0 1
1 1 1
1 1 0
1 1 0
0 1 0
0 1 0
0 1 0
0 1 0
1 0 0
1 0 0
1 0 0
1 0 1
1 0 1
1 0 1
1 0 1
1 0 1
1 0 1
0 0 1
0 0 1
0 0 0
1 0 0
1 0 0
1 0 0
1 0 0
1 0 0
1 0 0
0 1 0
0 1 0
0 1 0
0 0 0
0 0 0
0 0 0
0 0 0
0 0 0
0 1 0
0 0 1
0 0 1
0 0 1
0 0 1
0 0 1
0 0 1
0 0 1
0 0 1
0 0 1
0 0 0
0 0 1
0 0 1
0 0 1
0 0 1
0 0 1
0 0 1
0 0 1
0 0 1
0 0 1
0 0 1
0 0 1
0 0 1
0 0 1
0 0 1
0 0 1
0 0 1
0 0 1
1 1 0
1 1 1
1 1 1
1 1 1
1 1 1
1 0 1
1 0 1
1 0 1
1 0 1
1 0 1
1 0 1
1 0 0
1 0 0
1 0 0
1 0 0
1 0 0
1 0 0
1 0 0
0 0 1
0 0 1
0 0 0
0 1 0
0 1 0
0 1 0
0 1 0
0 1 0
0 1 0
1 0 1
1 0 1
1 0 0
1 0 0
1 0 0
1 0 0
1 0 0
1 0 0
1 0 0
0 0 0
0 0 0
0 0 0
0 0 0
0 0 0
0 0 0
0 0 0
0 0 0
0 0 0
1 0 0
1 0 0
1 0 0
1 0 0
1 0 0
1 0 0
1 0 0
1 0 0
1 0 0
1 0 1
1 1 1
1 1 1
1 1 1
1 1 1
1 1 1
1 1 1
1 1 1
1 0 1
1 0 1
1 0 1
1 0 1
1 0 1
1 0 1
1 0 1
1 0 1
1 0 1
1 0 1
0 0 0
0 0 0
1 0 0
1 0 0
0 0 0
0 0 0
0 0 0
0 0 0
0 0 0
0 1 1
0 1 1
0 1 1
0 1 1
0 1 1
0 1 1
0 0 1
0 0 1
0 0 1
1 0 1
1 0 1
1 0 1
1 0 1
1 0 1
1 0 1
1 0 1
1 0 1
1 0 1
0 0 1
0 0 1
0 1 1
0 1 1
0 0 1
0 0 1
0 0 1
0 0 1
0 0 1
1 0 0
1 0 0
1 0 0
1 0 0
1 0 0
1 0 0
1 0 0
1 0 0
1 0 0
0 0 1
1 0 0
0 0 0
0 0 0
0 0 1
0 0 0
0 0 0
0 0 1
0 0 1
0 0 0
0 0 1
0 0 0
0 0 0
1 0 0
0 0 1
0 0 0
1 0 0
0 0 1
0 0 1
0 0 0
0 0 1
0 0 1
0 0 0
0 0 1
0 0 0
1 0 0
1 0 1
0 0 1
1 0 0
0 0 1
0 0 1
1 0 1
0 0 0
0 0 0
0 0 0
0 0 0
1 0 1
0 0 1
0 0 1
0 0 0
0 0 1
0 0 1
1 0 0
0 0 1
0 0 0
0 0 0
0 0 0
0 0 0
1 0 1
0 0 0
0 0 1
0 0 1
0 0 0
1 0 0
0 0 0
0 0 0
1 0 1
0 0 0
1 0 0
0 0 0
0 0 0
0 0 0
0 0 1
0 0 1
0 0 0
0 0 0
0 0 1
0 0 0
1 0 1
0 0 1
0 0 1
0 0 1
1 0 0
1 0 0
1 0 1
1 0 1
0 0 1
0 0 1
0 0 1
0 0 1
0 0 0
0 0 0
1 0 0
1 0 1
0 0 1
1 0 0
0 0 1
1 0 1
0 0 0
1 0 1
0 0 0
0 0 0
0 0 1
0 0 0
0 0 0
0 0 1
0 0 1
0 0 0
0 0 0
0 0 0
0 0 1
1 0 0
0 0 1
1 0 1
0 0 0
0 0 1
0 0 0
1 0 1
0 0 1
0 0 0
0 0 0
0 0 1
0 0 1
0 0 0
0 0 0
0 0 0
0 0 0
0 0 1
0 0 0
1 0 1
1 0 0
1 0 1
0 0 1
0 0 1
0 0 0
0 0 1
0 0 1
0 0 1
0 0 0
0 0 0
0 0 0
0 0 1
</image>
</configuration>
</hoomd_xml>
